version 2
run simpleNet-0-20181120-19:43:27-10719
attr configname simpleNet
attr datetime 20181120-19:43:27
attr experiment simpleNet
attr inifile omnetpp.ini
attr iterationvars ""
attr iterationvarsf ""
attr measurement ""
attr network simpleNet
attr processid 10719
attr repetition 0
attr replication #0
attr resultdir results
attr runnumber 0
attr seedset 0

vector 0 simpleNet.node[0] "numAttemptedPerDestSignal(dest node 4):vector" ETV
vector 1 simpleNet.node[0] "numAttemptedPerDestSignal(dest node 1):vector" ETV
vector 2 simpleNet.node[0] "numInQueuePerChannelSignal(other node 1):vector" ETV
vector 3 simpleNet.node[0] "numInQueuePerChannelSignal(other node 3):vector" ETV
vector 4 simpleNet.node[0] "numInQueuePerChannelSignal(other node 4):vector" ETV
vector 5 simpleNet.node[0] "numProcessedPerChannelSignal(other node 0):vector" ETV
vector 6 simpleNet.node[0] "numProcessedPerChannelSignal(other node 1):vector" ETV
vector 7 simpleNet.node[0] "numProcessedPerChannelSignal(other node 2):vector" ETV
vector 8 simpleNet.node[0] "numProcessedPerChannelSignal(other node 3):vector" ETV
vector 9 simpleNet.node[0] "numProcessedPerChannelSignal(other node 4):vector" ETV
vector 10 simpleNet.node[0] numInQueue:vector ETV
attr interpolationmode none
attr source numInQueue
attr title "total num in queue, vector"
vector 11 simpleNet.node[1] "numAttemptedPerDestSignal(dest node 3):vector" ETV
vector 12 simpleNet.node[1] "numInQueuePerChannelSignal(other node 0):vector" ETV
vector 13 simpleNet.node[1] "numInQueuePerChannelSignal(other node 2):vector" ETV
vector 14 simpleNet.node[1] "numInQueuePerChannelSignal(other node 3):vector" ETV
vector 15 simpleNet.node[1] "numProcessedPerChannelSignal(other node 0):vector" ETV
vector 16 simpleNet.node[1] "numProcessedPerChannelSignal(other node 1):vector" ETV
vector 17 simpleNet.node[1] "numProcessedPerChannelSignal(other node 2):vector" ETV
vector 18 simpleNet.node[1] "numProcessedPerChannelSignal(other node 3):vector" ETV
vector 19 simpleNet.node[1] "numProcessedPerChannelSignal(other node 4):vector" ETV
vector 20 simpleNet.node[1] numInQueue:vector ETV
attr interpolationmode none
attr source numInQueue
attr title "total num in queue, vector"
vector 21 simpleNet.node[2] "numAttemptedPerDestSignal(dest node 1):vector" ETV
vector 22 simpleNet.node[2] "numAttemptedPerDestSignal(dest node 4):vector" ETV
vector 23 simpleNet.node[2] "numInQueuePerChannelSignal(other node 1):vector" ETV
vector 24 simpleNet.node[2] "numInQueuePerChannelSignal(other node 3):vector" ETV
vector 25 simpleNet.node[2] "numInQueuePerChannelSignal(other node 4):vector" ETV
vector 26 simpleNet.node[2] "numProcessedPerChannelSignal(other node 0):vector" ETV
vector 27 simpleNet.node[2] "numProcessedPerChannelSignal(other node 1):vector" ETV
vector 28 simpleNet.node[2] "numProcessedPerChannelSignal(other node 2):vector" ETV
vector 29 simpleNet.node[2] "numProcessedPerChannelSignal(other node 3):vector" ETV
vector 30 simpleNet.node[2] "numProcessedPerChannelSignal(other node 4):vector" ETV
vector 31 simpleNet.node[2] numInQueue:vector ETV
attr interpolationmode none
attr source numInQueue
attr title "total num in queue, vector"
vector 32 simpleNet.node[3] "numAttemptedPerDestSignal(dest node 0):vector" ETV
vector 33 simpleNet.node[3] "numAttemptedPerDestSignal(dest node 2):vector" ETV
vector 34 simpleNet.node[3] "numInQueuePerChannelSignal(other node 0):vector" ETV
vector 35 simpleNet.node[3] "numInQueuePerChannelSignal(other node 1):vector" ETV
vector 36 simpleNet.node[3] "numInQueuePerChannelSignal(other node 2):vector" ETV
vector 37 simpleNet.node[3] "numProcessedPerChannelSignal(other node 0):vector" ETV
vector 38 simpleNet.node[3] "numProcessedPerChannelSignal(other node 1):vector" ETV
vector 39 simpleNet.node[3] "numProcessedPerChannelSignal(other node 2):vector" ETV
vector 40 simpleNet.node[3] "numProcessedPerChannelSignal(other node 3):vector" ETV
vector 41 simpleNet.node[3] "numProcessedPerChannelSignal(other node 4):vector" ETV
vector 42 simpleNet.node[3] numInQueue:vector ETV
attr interpolationmode none
attr source numInQueue
attr title "total num in queue, vector"
vector 43 simpleNet.node[4] "numAttemptedPerDestSignal(dest node 2):vector" ETV
vector 44 simpleNet.node[4] "numInQueuePerChannelSignal(other node 0):vector" ETV
vector 45 simpleNet.node[4] "numInQueuePerChannelSignal(other node 2):vector" ETV
vector 46 simpleNet.node[4] "numProcessedPerChannelSignal(other node 0):vector" ETV
vector 47 simpleNet.node[4] "numProcessedPerChannelSignal(other node 1):vector" ETV
vector 48 simpleNet.node[4] "numProcessedPerChannelSignal(other node 2):vector" ETV
vector 49 simpleNet.node[4] "numProcessedPerChannelSignal(other node 3):vector" ETV
vector 50 simpleNet.node[4] "numProcessedPerChannelSignal(other node 4):vector" ETV
vector 51 simpleNet.node[4] numInQueue:vector ETV
attr interpolationmode none
attr source numInQueue
attr title "total num in queue, vector"
vector 52 simpleNet.node[0] completionTime:vector ETV
attr interpolationmode none
attr source completionTime
attr title "completionTime, vector"
vector 53 simpleNet.node[0] "numCompletedPerDestSignal(source node 4):vector" ETV
vector 54 simpleNet.node[0] "numCompletedPerDestSignal(source node 1):vector" ETV
vector 55 simpleNet.node[1] completionTime:vector ETV
attr interpolationmode none
attr source completionTime
attr title "completionTime, vector"
vector 56 simpleNet.node[1] "numCompletedPerDestSignal(source node 3):vector" ETV
vector 57 simpleNet.node[2] completionTime:vector ETV
attr interpolationmode none
attr source completionTime
attr title "completionTime, vector"
vector 58 simpleNet.node[2] "numCompletedPerDestSignal(source node 1):vector" ETV
vector 59 simpleNet.node[2] "numCompletedPerDestSignal(source node 4):vector" ETV
vector 60 simpleNet.node[3] completionTime:vector ETV
attr interpolationmode none
attr source completionTime
attr title "completionTime, vector"
vector 61 simpleNet.node[3] "numCompletedPerDestSignal(source node 0):vector" ETV
vector 62 simpleNet.node[3] "numCompletedPerDestSignal(source node 2):vector" ETV
vector 63 simpleNet.node[4] completionTime:vector ETV
attr interpolationmode none
attr source completionTime
attr title "completionTime, vector"
vector 64 simpleNet.node[4] "numCompletedPerDestSignal(source node 2):vector" ETV
0	1	0	1
0	19	0.02	2
0	40	0.04	3
0	66	0.06	4
0	105	0.08	5
0	152	0.1	6
0	204	0.12	7
0	256	0.14	8
0	308	0.16	9
0	360	0.18	10
0	412	0.2	11
0	464	0.22	12
0	516	0.24	13
0	568	0.26	14
0	620	0.28	15
0	672	0.3	16
0	724	0.32	17
0	776	0.34	18
0	828	0.36	19
0	880	0.38	20
0	932	0.4	21
0	984	0.42	22
0	1036	0.44	23
0	1088	0.46	24
0	1140	0.48	25
0	1192	0.5	26
0	1249	0.52	27
0	1301	0.54	28
0	1353	0.56	29
0	1405	0.58	30
0	1457	0.6	31
0	1509	0.62	32
0	1561	0.64	33
0	1613	0.66	34
0	1665	0.68	35
0	1717	0.7	36
0	1769	0.72	37
0	1821	0.74	38
0	1873	0.76	39
0	1925	0.78	40
0	1977	0.8	41
0	2029	0.82	42
0	2081	0.84	43
0	2133	0.86	44
0	2185	0.88	45
0	2237	0.9	46
0	2289	0.92	47
0	2341	0.94	48
0	2393	0.96	49
0	2445	0.98	50
0	2497	1	51
0	2554	1.02	52
0	2603	1.04	53
0	2649	1.06	54
0	2689	1.08	55
0	2726	1.1	56
0	2760	1.12	57
0	2794	1.14	58
0	2828	1.16	59
0	2862	1.18	60
0	2896	1.2	61
0	2930	1.22	62
0	2964	1.24	63
0	2998	1.26	64
0	3032	1.28	65
0	3066	1.3	66
0	3100	1.32	67
0	3134	1.34	68
0	3168	1.36	69
0	3202	1.38	70
0	3236	1.4	71
0	3270	1.42	72
0	3304	1.44	73
0	3338	1.46	74
0	3372	1.48	75
0	3406	1.5	76
0	3445	1.52	77
0	3479	1.54	78
0	3513	1.56	79
0	3547	1.58	80
0	3581	1.6	81
0	3615	1.62	82
0	3649	1.64	83
0	3683	1.66	84
0	3717	1.68	85
0	3751	1.7	86
0	3785	1.72	87
0	3819	1.74	88
0	3853	1.76	89
0	3887	1.78	90
0	3921	1.8	91
0	3955	1.82	92
0	3989	1.84	93
0	4023	1.86	94
0	4057	1.88	95
0	4091	1.9	96
0	4125	1.92	97
0	4159	1.94	98
0	4193	1.96	99
0	4227	1.98	100
0	4261	2	101
0	4300	2.02	102
0	4331	2.04	103
0	4362	2.06	104
0	4390	2.08	105
0	4415	2.1	106
0	4440	2.12	107
0	4465	2.14	108
0	4490	2.16	109
0	4515	2.18	110
0	4540	2.2	111
0	4565	2.22	112
0	4590	2.24	113
0	4615	2.26	114
0	4640	2.28	115
0	4665	2.3	116
0	4690	2.32	117
0	4715	2.34	118
0	4740	2.36	119
0	4765	2.38	120
0	4790	2.4	121
0	4815	2.42	122
0	4840	2.44	123
0	4865	2.46	124
0	4890	2.48	125
0	4915	2.5	126
0	4945	2.52	127
0	4970	2.54	128
0	4995	2.56	129
0	5020	2.58	130
0	5045	2.6	131
0	5070	2.62	132
0	5095	2.64	133
0	5120	2.66	134
0	5145	2.68	135
0	5170	2.7	136
0	5195	2.72	137
0	5220	2.74	138
0	5245	2.76	139
0	5270	2.78	140
0	5295	2.8	141
0	5320	2.82	142
0	5345	2.84	143
0	5370	2.86	144
0	5395	2.88	145
0	5420	2.9	146
0	5445	2.92	147
0	5470	2.94	148
0	5495	2.96	149
0	5520	2.98	150
0	5545	3	151
0	5575	3.02	152
0	5600	3.04	153
0	5625	3.06	154
0	5650	3.08	155
0	5675	3.1	156
0	5700	3.12	157
0	5725	3.14	158
0	5750	3.16	159
0	5775	3.18	160
0	5800	3.2	161
0	5825	3.22	162
0	5850	3.24	163
0	5875	3.26	164
0	5900	3.28	165
0	5925	3.3	166
0	5950	3.32	167
0	5975	3.34	168
0	6000	3.36	169
0	6025	3.38	170
0	6050	3.4	171
0	6075	3.42	172
0	6100	3.44	173
0	6125	3.46	174
0	6150	3.48	175
0	6175	3.5	176
0	6205	3.52	177
0	6230	3.54	178
0	6255	3.56	179
0	6280	3.58	180
0	6305	3.6	181
0	6330	3.62	182
0	6355	3.64	183
0	6380	3.66	184
0	6405	3.68	185
0	6430	3.7	186
0	6455	3.72	187
0	6480	3.74	188
0	6505	3.76	189
0	6530	3.78	190
0	6555	3.8	191
0	6580	3.82	192
0	6605	3.84	193
0	6630	3.86	194
0	6655	3.88	195
0	6680	3.9	196
0	6705	3.92	197
0	6730	3.94	198
0	6755	3.96	199
0	6780	3.98	200
0	6805	4	201
0	6835	4.02	202
0	6860	4.04	203
0	6885	4.06	204
0	6910	4.08	205
0	6935	4.1	206
0	6960	4.12	207
0	6985	4.14	208
0	7010	4.16	209
0	7035	4.18	210
0	7060	4.2	211
0	7085	4.22	212
0	7110	4.24	213
0	7135	4.26	214
0	7160	4.28	215
0	7185	4.3	216
0	7210	4.32	217
0	7235	4.34	218
0	7260	4.36	219
0	7285	4.38	220
0	7310	4.4	221
0	7335	4.42	222
0	7360	4.44	223
0	7385	4.46	224
0	7410	4.48	225
0	7435	4.5	226
0	7465	4.52	227
0	7490	4.54	228
0	7515	4.56	229
0	7540	4.58	230
0	7565	4.6	231
0	7590	4.62	232
0	7615	4.64	233
0	7640	4.66	234
0	7665	4.68	235
0	7690	4.7	236
0	7715	4.72	237
0	7740	4.74	238
0	7765	4.76	239
0	7790	4.78	240
0	7815	4.8	241
0	7840	4.82	242
0	7865	4.84	243
0	7890	4.86	244
0	7915	4.88	245
0	7940	4.9	246
0	7965	4.92	247
0	7990	4.94	248
0	8015	4.96	249
0	8040	4.98	250
0	8065	5	251
0	8095	5.02	252
0	8120	5.04	253
0	8145	5.06	254
0	8170	5.08	255
0	8195	5.1	256
0	8220	5.12	257
0	8245	5.14	258
0	8270	5.16	259
0	8295	5.18	260
0	8320	5.2	261
0	8345	5.22	262
0	8370	5.24	263
0	8395	5.26	264
0	8420	5.28	265
0	8445	5.3	266
0	8470	5.32	267
0	8495	5.34	268
0	8520	5.36	269
0	8545	5.38	270
0	8570	5.4	271
0	8595	5.42	272
0	8620	5.44	273
0	8645	5.46	274
0	8670	5.48	275
0	8695	5.5	276
0	8725	5.52	277
0	8750	5.54	278
0	8775	5.56	279
0	8800	5.58	280
0	8825	5.6	281
0	8850	5.62	282
0	8875	5.64	283
0	8900	5.66	284
0	8925	5.68	285
0	8950	5.7	286
0	8975	5.72	287
0	9000	5.74	288
0	9025	5.76	289
0	9050	5.78	290
0	9075	5.8	291
0	9100	5.82	292
0	9125	5.84	293
0	9150	5.86	294
0	9175	5.88	295
0	9200	5.9	296
0	9225	5.92	297
0	9250	5.94	298
0	9275	5.96	299
0	9300	5.98	300
0	9325	6	301
0	9355	6.02	302
0	9380	6.04	303
0	9405	6.06	304
0	9430	6.08	305
0	9455	6.1	306
0	9480	6.12	307
0	9505	6.14	308
0	9530	6.16	309
0	9555	6.18	310
0	9580	6.2	311
0	9605	6.22	312
0	9630	6.24	313
0	9655	6.26	314
0	9680	6.28	315
0	9705	6.3	316
0	9730	6.32	317
0	9755	6.34	318
0	9780	6.36	319
0	9805	6.38	320
0	9830	6.4	321
0	9855	6.42	322
0	9880	6.44	323
0	9905	6.46	324
0	9930	6.48	325
0	9955	6.5	326
0	9985	6.52	327
0	10010	6.54	328
0	10035	6.56	329
0	10060	6.58	330
0	10085	6.6	331
0	10110	6.62	332
0	10135	6.64	333
0	10160	6.66	334
0	10185	6.68	335
0	10210	6.7	336
0	10235	6.72	337
0	10260	6.74	338
0	10285	6.76	339
0	10310	6.78	340
0	10335	6.8	341
0	10360	6.82	342
0	10385	6.84	343
0	10410	6.86	344
0	10435	6.88	345
0	10460	6.9	346
0	10485	6.92	347
0	10510	6.94	348
0	10535	6.96	349
0	10560	6.98	350
0	10585	7	351
0	10615	7.02	352
0	10640	7.04	353
0	10665	7.06	354
0	10690	7.08	355
0	10715	7.1	356
0	10740	7.12	357
0	10765	7.14	358
0	10790	7.16	359
0	10815	7.18	360
0	10840	7.2	361
0	10865	7.22	362
0	10890	7.24	363
0	10915	7.26	364
0	10940	7.28	365
0	10965	7.3	366
0	10990	7.32	367
0	11015	7.34	368
0	11040	7.36	369
0	11065	7.38	370
0	11090	7.4	371
0	11115	7.42	372
0	11140	7.44	373
0	11165	7.46	374
0	11190	7.48	375
0	11215	7.5	376
0	11245	7.52	377
0	11270	7.54	378
0	11295	7.56	379
0	11320	7.58	380
0	11345	7.6	381
0	11370	7.62	382
0	11395	7.64	383
0	11420	7.66	384
0	11445	7.68	385
0	11470	7.7	386
0	11495	7.72	387
0	11520	7.74	388
0	11545	7.76	389
0	11570	7.78	390
0	11595	7.8	391
0	11620	7.82	392
0	11645	7.84	393
0	11670	7.86	394
0	11695	7.88	395
0	11720	7.9	396
0	11745	7.92	397
0	11770	7.94	398
0	11795	7.96	399
0	11820	7.98	400
0	11845	8	401
0	11875	8.02	402
0	11900	8.04	403
0	11925	8.06	404
0	11950	8.08	405
0	11975	8.1	406
0	12000	8.12	407
0	12025	8.14	408
0	12050	8.16	409
0	12075	8.18	410
0	12100	8.2	411
0	12125	8.22	412
0	12150	8.24	413
0	12175	8.26	414
0	12200	8.28	415
0	12225	8.3	416
0	12250	8.32	417
0	12275	8.34	418
0	12300	8.36	419
0	12325	8.38	420
0	12350	8.4	421
0	12375	8.42	422
0	12400	8.44	423
0	12425	8.46	424
0	12450	8.48	425
0	12475	8.5	426
0	12505	8.52	427
0	12530	8.54	428
0	12555	8.56	429
0	12580	8.58	430
0	12605	8.6	431
0	12630	8.62	432
0	12655	8.64	433
0	12680	8.66	434
0	12705	8.68	435
0	12730	8.7	436
0	12755	8.72	437
0	12780	8.74	438
0	12805	8.76	439
0	12830	8.78	440
0	12855	8.8	441
0	12880	8.82	442
0	12905	8.84	443
0	12930	8.86	444
0	12955	8.88	445
0	12980	8.9	446
0	13005	8.92	447
0	13030	8.94	448
0	13055	8.96	449
0	13080	8.98	450
0	13105	9	451
0	13135	9.02	452
0	13160	9.04	453
0	13185	9.06	454
0	13210	9.08	455
0	13235	9.1	456
0	13260	9.12	457
0	13285	9.14	458
0	13310	9.16	459
0	13335	9.18	460
0	13360	9.2	461
0	13385	9.22	462
0	13410	9.24	463
0	13435	9.26	464
0	13460	9.28	465
0	13485	9.3	466
0	13510	9.32	467
0	13535	9.34	468
0	13560	9.36	469
0	13585	9.38	470
0	13610	9.4	471
0	13635	9.42	472
0	13660	9.44	473
0	13685	9.46	474
0	13710	9.48	475
0	13735	9.5	476
0	13765	9.52	477
0	13790	9.54	478
0	13815	9.56	479
0	13840	9.58	480
0	13865	9.6	481
0	13890	9.62	482
0	13915	9.64	483
0	13940	9.66	484
0	13965	9.68	485
0	13990	9.7	486
0	14015	9.72	487
0	14040	9.74	488
0	14065	9.76	489
0	14090	9.78	490
0	14115	9.8	491
0	14140	9.82	492
0	14165	9.84	493
0	14190	9.86	494
0	14215	9.88	495
0	14240	9.9	496
0	14265	9.92	497
0	14290	9.94	498
0	14315	9.96	499
0	14340	9.98	500
0	14365	10	501
0	14395	10.02	502
0	14420	10.04	503
0	14445	10.06	504
0	14470	10.08	505
0	14495	10.1	506
0	14520	10.12	507
0	14545	10.14	508
0	14570	10.16	509
0	14595	10.18	510
0	14620	10.2	511
0	14645	10.22	512
0	14670	10.24	513
0	14695	10.26	514
0	14720	10.28	515
0	14745	10.3	516
0	14770	10.32	517
0	14795	10.34	518
0	14820	10.36	519
0	14845	10.38	520
0	14870	10.4	521
0	14895	10.42	522
0	14920	10.44	523
0	14945	10.46	524
0	14970	10.48	525
0	14995	10.5	526
0	15025	10.52	527
0	15050	10.54	528
0	15075	10.56	529
0	15100	10.58	530
0	15125	10.6	531
0	15150	10.62	532
0	15175	10.64	533
0	15200	10.66	534
0	15225	10.68	535
0	15250	10.7	536
0	15275	10.72	537
0	15300	10.74	538
0	15325	10.76	539
0	15350	10.78	540
0	15375	10.8	541
0	15400	10.82	542
0	15425	10.84	543
0	15450	10.86	544
0	15475	10.88	545
0	15500	10.9	546
0	15525	10.92	547
0	15550	10.94	548
0	15575	10.96	549
0	15600	10.98	550
0	15625	11	551
0	15655	11.02	552
0	15680	11.04	553
0	15705	11.06	554
0	15730	11.08	555
0	15755	11.1	556
0	15780	11.12	557
0	15805	11.14	558
0	15830	11.16	559
0	15855	11.18	560
0	15880	11.2	561
0	15905	11.22	562
0	15930	11.24	563
0	15955	11.26	564
0	15980	11.28	565
0	16005	11.3	566
0	16030	11.32	567
0	16055	11.34	568
0	16080	11.36	569
0	16105	11.38	570
0	16130	11.4	571
0	16155	11.42	572
0	16180	11.44	573
0	16205	11.46	574
0	16230	11.48	575
0	16255	11.5	576
0	16285	11.52	577
0	16310	11.54	578
0	16335	11.56	579
0	16360	11.58	580
0	16385	11.6	581
0	16410	11.62	582
0	16435	11.64	583
0	16460	11.66	584
0	16485	11.68	585
0	16510	11.7	586
0	16535	11.72	587
0	16560	11.74	588
0	16585	11.76	589
0	16610	11.78	590
0	16635	11.8	591
0	16660	11.82	592
0	16685	11.84	593
0	16710	11.86	594
0	16735	11.88	595
0	16760	11.9	596
0	16785	11.92	597
0	16810	11.94	598
0	16835	11.96	599
0	16860	11.98	600
0	16885	12	601
0	16915	12.02	602
0	16940	12.04	603
0	16965	12.06	604
0	16990	12.08	605
0	17015	12.1	606
0	17040	12.12	607
0	17065	12.14	608
0	17090	12.16	609
0	17115	12.18	610
0	17140	12.2	611
0	17165	12.22	612
0	17190	12.24	613
0	17215	12.26	614
0	17240	12.28	615
0	17265	12.3	616
0	17290	12.32	617
0	17315	12.34	618
0	17340	12.36	619
0	17365	12.38	620
0	17390	12.4	621
0	17415	12.42	622
0	17440	12.44	623
0	17465	12.46	624
0	17490	12.48	625
0	17515	12.5	626
0	17545	12.52	627
0	17570	12.54	628
0	17595	12.56	629
0	17620	12.58	630
0	17645	12.6	631
0	17670	12.62	632
0	17695	12.64	633
0	17720	12.66	634
0	17745	12.68	635
0	17770	12.7	636
0	17795	12.72	637
0	17820	12.74	638
0	17845	12.76	639
0	17870	12.78	640
0	17895	12.8	641
0	17920	12.82	642
0	17945	12.84	643
0	17970	12.86	644
0	17995	12.88	645
0	18020	12.9	646
0	18045	12.92	647
0	18070	12.94	648
0	18095	12.96	649
0	18120	12.98	650
0	18145	13	651
0	18175	13.02	652
0	18200	13.04	653
0	18225	13.06	654
0	18250	13.08	655
0	18275	13.1	656
0	18300	13.12	657
0	18325	13.14	658
0	18350	13.16	659
0	18375	13.18	660
0	18400	13.2	661
0	18425	13.22	662
0	18450	13.24	663
0	18475	13.26	664
0	18500	13.28	665
0	18525	13.3	666
0	18550	13.32	667
0	18575	13.34	668
0	18600	13.36	669
0	18625	13.38	670
0	18650	13.4	671
0	18675	13.42	672
0	18700	13.44	673
0	18725	13.46	674
0	18750	13.48	675
0	18775	13.5	676
0	18805	13.52	677
0	18830	13.54	678
0	18855	13.56	679
0	18880	13.58	680
0	18905	13.6	681
0	18930	13.62	682
0	18955	13.64	683
0	18980	13.66	684
0	19005	13.68	685
0	19030	13.7	686
0	19055	13.72	687
0	19080	13.74	688
0	19105	13.76	689
0	19130	13.78	690
0	19155	13.8	691
0	19180	13.82	692
0	19205	13.84	693
0	19230	13.86	694
0	19255	13.88	695
0	19280	13.9	696
0	19305	13.92	697
0	19330	13.94	698
0	19355	13.96	699
0	19380	13.98	700
0	19405	14	701
0	19435	14.02	702
0	19460	14.04	703
0	19485	14.06	704
0	19510	14.08	705
0	19535	14.1	706
0	19560	14.12	707
0	19585	14.14	708
0	19610	14.16	709
0	19635	14.18	710
0	19660	14.2	711
0	19685	14.22	712
0	19710	14.24	713
0	19735	14.26	714
0	19760	14.28	715
0	19785	14.3	716
0	19810	14.32	717
0	19835	14.34	718
0	19860	14.36	719
0	19885	14.38	720
0	19910	14.4	721
0	19935	14.42	722
0	19960	14.44	723
0	19985	14.46	724
0	20010	14.48	725
0	20035	14.5	726
0	20065	14.52	727
0	20090	14.54	728
0	20115	14.56	729
0	20140	14.58	730
0	20165	14.6	731
0	20190	14.62	732
0	20215	14.64	733
0	20240	14.66	734
0	20265	14.68	735
0	20290	14.7	736
0	20315	14.72	737
0	20340	14.74	738
0	20365	14.76	739
0	20390	14.78	740
0	20415	14.8	741
0	20440	14.82	742
0	20465	14.84	743
0	20490	14.86	744
0	20515	14.88	745
0	20540	14.9	746
0	20565	14.92	747
0	20590	14.94	748
0	20615	14.96	749
0	20640	14.98	750
0	20665	15	751
0	20695	15.02	752
0	20720	15.04	753
0	20745	15.06	754
0	20770	15.08	755
0	20795	15.1	756
0	20820	15.12	757
0	20845	15.14	758
0	20870	15.16	759
0	20895	15.18	760
0	20920	15.2	761
0	20945	15.22	762
0	20970	15.24	763
0	20995	15.26	764
0	21020	15.28	765
0	21045	15.3	766
0	21070	15.32	767
0	21095	15.34	768
0	21120	15.36	769
0	21145	15.38	770
0	21170	15.4	771
0	21195	15.42	772
0	21220	15.44	773
0	21245	15.46	774
0	21270	15.48	775
0	21295	15.5	776
0	21325	15.52	777
0	21350	15.54	778
0	21375	15.56	779
0	21400	15.58	780
0	21425	15.6	781
0	21450	15.62	782
0	21475	15.64	783
0	21500	15.66	784
0	21525	15.68	785
0	21550	15.7	786
0	21575	15.72	787
0	21600	15.74	788
0	21625	15.76	789
0	21650	15.78	790
0	21675	15.8	791
0	21700	15.82	792
0	21725	15.84	793
0	21750	15.86	794
0	21775	15.88	795
0	21800	15.9	796
0	21825	15.92	797
0	21850	15.94	798
0	21875	15.96	799
0	21900	15.98	800
0	21925	16	801
0	21955	16.02	802
0	21980	16.04	803
0	22005	16.06	804
0	22030	16.08	805
0	22055	16.1	806
0	22080	16.12	807
0	22105	16.14	808
0	22130	16.16	809
0	22155	16.18	810
0	22180	16.2	811
0	22205	16.22	812
0	22230	16.24	813
0	22255	16.26	814
0	22280	16.28	815
0	22305	16.3	816
0	22330	16.32	817
0	22355	16.34	818
0	22380	16.36	819
0	22405	16.38	820
0	22430	16.4	821
0	22455	16.42	822
0	22480	16.44	823
0	22505	16.46	824
0	22530	16.48	825
0	22555	16.5	826
0	22585	16.52	827
0	22610	16.54	828
0	22635	16.56	829
0	22660	16.58	830
0	22685	16.6	831
0	22710	16.62	832
0	22735	16.64	833
0	22760	16.66	834
0	22785	16.68	835
0	22810	16.7	836
0	22835	16.72	837
0	22860	16.74	838
0	22885	16.76	839
0	22910	16.78	840
0	22935	16.8	841
0	22960	16.82	842
0	22985	16.84	843
0	23010	16.86	844
0	23035	16.88	845
0	23060	16.9	846
0	23085	16.92	847
0	23110	16.94	848
0	23135	16.96	849
0	23160	16.98	850
0	23185	17	851
0	23215	17.02	852
0	23240	17.04	853
0	23265	17.06	854
0	23290	17.08	855
0	23315	17.1	856
0	23340	17.12	857
0	23365	17.14	858
0	23390	17.16	859
0	23415	17.18	860
0	23440	17.2	861
0	23465	17.22	862
0	23490	17.24	863
0	23515	17.26	864
0	23540	17.28	865
0	23565	17.3	866
0	23590	17.32	867
0	23615	17.34	868
0	23640	17.36	869
0	23665	17.38	870
0	23690	17.4	871
0	23715	17.42	872
0	23740	17.44	873
0	23765	17.46	874
0	23790	17.48	875
0	23815	17.5	876
0	23845	17.52	877
0	23870	17.54	878
0	23895	17.56	879
0	23920	17.58	880
0	23945	17.6	881
0	23970	17.62	882
0	23995	17.64	883
0	24020	17.66	884
0	24045	17.68	885
0	24070	17.7	886
0	24095	17.72	887
0	24120	17.74	888
0	24145	17.76	889
0	24170	17.78	890
0	24195	17.8	891
0	24220	17.82	892
0	24245	17.84	893
0	24270	17.86	894
0	24295	17.88	895
0	24320	17.9	896
0	24345	17.92	897
0	24370	17.94	898
0	24395	17.96	899
0	24420	17.98	900
0	24445	18	901
0	24475	18.02	902
0	24500	18.04	903
0	24525	18.06	904
0	24550	18.08	905
0	24575	18.1	906
0	24600	18.12	907
0	24625	18.14	908
0	24650	18.16	909
0	24675	18.18	910
0	24700	18.2	911
0	24725	18.22	912
0	24750	18.24	913
0	24775	18.26	914
0	24800	18.28	915
0	24825	18.3	916
0	24850	18.32	917
0	24875	18.34	918
0	24900	18.36	919
0	24925	18.38	920
0	24950	18.4	921
0	24975	18.42	922
0	25000	18.44	923
0	25025	18.46	924
0	25050	18.48	925
0	25075	18.5	926
0	25105	18.52	927
0	25130	18.54	928
0	25155	18.56	929
0	25180	18.58	930
0	25205	18.6	931
0	25230	18.62	932
0	25255	18.64	933
0	25280	18.66	934
0	25305	18.68	935
0	25330	18.7	936
0	25355	18.72	937
0	25380	18.74	938
0	25405	18.76	939
0	25430	18.78	940
0	25455	18.8	941
0	25480	18.82	942
0	25505	18.84	943
0	25530	18.86	944
0	25555	18.88	945
0	25580	18.9	946
0	25605	18.92	947
0	25630	18.94	948
0	25655	18.96	949
0	25680	18.98	950
0	25705	19	951
0	25735	19.02	952
0	25760	19.04	953
0	25785	19.06	954
0	25810	19.08	955
0	25835	19.1	956
0	25860	19.12	957
0	25885	19.14	958
0	25910	19.16	959
0	25935	19.18	960
0	25960	19.2	961
0	25985	19.22	962
0	26010	19.24	963
0	26035	19.26	964
0	26060	19.28	965
0	26085	19.3	966
0	26110	19.32	967
0	26135	19.34	968
0	26160	19.36	969
0	26185	19.38	970
0	26210	19.4	971
0	26235	19.42	972
0	26260	19.44	973
0	26285	19.46	974
0	26310	19.48	975
0	26335	19.5	976
0	26365	19.52	977
0	26390	19.54	978
0	26415	19.56	979
0	26440	19.58	980
0	26465	19.6	981
0	26490	19.62	982
0	26515	19.64	983
0	26540	19.66	984
0	26565	19.68	985
0	26590	19.7	986
0	26615	19.72	987
0	26640	19.74	988
0	26665	19.76	989
0	26690	19.78	990
0	26715	19.8	991
0	26740	19.82	992
0	26765	19.84	993
0	26790	19.86	994
0	26815	19.88	995
0	26840	19.9	996
0	26865	19.92	997
0	26890	19.94	998
0	26915	19.96	999
0	26940	19.98	1000
0	26965	20	1001
0	26995	20.02	1002
0	27020	20.04	1003
0	27045	20.06	1004
0	27070	20.08	1005
0	27095	20.1	1006
0	27120	20.12	1007
0	27145	20.14	1008
0	27170	20.16	1009
0	27195	20.18	1010
0	27220	20.2	1011
0	27245	20.22	1012
0	27270	20.24	1013
0	27295	20.26	1014
0	27320	20.28	1015
0	27345	20.3	1016
0	27370	20.32	1017
0	27395	20.34	1018
0	27420	20.36	1019
0	27445	20.38	1020
0	27470	20.4	1021
0	27495	20.42	1022
0	27520	20.44	1023
0	27545	20.46	1024
0	27570	20.48	1025
0	27595	20.5	1026
0	27625	20.52	1027
0	27650	20.54	1028
0	27675	20.56	1029
0	27700	20.58	1030
0	27725	20.6	1031
0	27750	20.62	1032
0	27775	20.64	1033
0	27800	20.66	1034
0	27825	20.68	1035
0	27850	20.7	1036
0	27875	20.72	1037
0	27900	20.74	1038
0	27925	20.76	1039
0	27950	20.78	1040
0	27975	20.8	1041
0	28000	20.82	1042
0	28025	20.84	1043
0	28050	20.86	1044
0	28075	20.88	1045
0	28100	20.9	1046
0	28125	20.92	1047
0	28150	20.94	1048
0	28175	20.96	1049
0	28200	20.98	1050
0	28225	21	1051
0	28255	21.02	1052
0	28280	21.04	1053
0	28305	21.06	1054
0	28330	21.08	1055
0	28355	21.1	1056
0	28380	21.12	1057
0	28405	21.14	1058
0	28430	21.16	1059
0	28455	21.18	1060
0	28480	21.2	1061
0	28505	21.22	1062
0	28530	21.24	1063
0	28555	21.26	1064
0	28580	21.28	1065
0	28605	21.3	1066
0	28630	21.32	1067
0	28655	21.34	1068
0	28680	21.36	1069
0	28705	21.38	1070
0	28730	21.4	1071
0	28755	21.42	1072
0	28780	21.44	1073
0	28805	21.46	1074
0	28830	21.48	1075
0	28855	21.5	1076
0	28885	21.52	1077
0	28910	21.54	1078
0	28935	21.56	1079
0	28960	21.58	1080
0	28985	21.6	1081
0	29010	21.62	1082
0	29035	21.64	1083
0	29060	21.66	1084
0	29085	21.68	1085
0	29110	21.7	1086
0	29135	21.72	1087
0	29160	21.74	1088
0	29185	21.76	1089
0	29210	21.78	1090
0	29235	21.8	1091
0	29260	21.82	1092
0	29285	21.84	1093
0	29310	21.86	1094
0	29335	21.88	1095
0	29360	21.9	1096
0	29385	21.92	1097
0	29410	21.94	1098
0	29435	21.96	1099
0	29460	21.98	1100
0	29485	22	1101
0	29515	22.02	1102
0	29540	22.04	1103
0	29565	22.06	1104
0	29590	22.08	1105
0	29615	22.1	1106
0	29640	22.12	1107
0	29665	22.14	1108
0	29690	22.16	1109
0	29715	22.18	1110
0	29740	22.2	1111
0	29765	22.22	1112
0	29790	22.24	1113
0	29815	22.26	1114
0	29840	22.28	1115
0	29865	22.3	1116
0	29890	22.32	1117
0	29915	22.34	1118
0	29940	22.36	1119
0	29965	22.38	1120
0	29990	22.4	1121
0	30015	22.42	1122
0	30040	22.44	1123
0	30065	22.46	1124
0	30090	22.48	1125
0	30115	22.5	1126
0	30145	22.52	1127
0	30170	22.54	1128
0	30195	22.56	1129
0	30220	22.58	1130
0	30245	22.6	1131
0	30270	22.62	1132
0	30295	22.64	1133
0	30320	22.66	1134
0	30345	22.68	1135
0	30370	22.7	1136
0	30395	22.72	1137
0	30420	22.74	1138
0	30445	22.76	1139
0	30470	22.78	1140
0	30495	22.8	1141
0	30520	22.82	1142
0	30545	22.84	1143
0	30570	22.86	1144
0	30595	22.88	1145
0	30620	22.9	1146
0	30645	22.92	1147
0	30670	22.94	1148
0	30695	22.96	1149
0	30720	22.98	1150
0	30745	23	1151
0	30775	23.02	1152
0	30800	23.04	1153
0	30825	23.06	1154
0	30850	23.08	1155
0	30875	23.1	1156
0	30900	23.12	1157
0	30925	23.14	1158
0	30950	23.16	1159
0	30975	23.18	1160
0	31000	23.2	1161
0	31025	23.22	1162
0	31050	23.24	1163
0	31075	23.26	1164
0	31100	23.28	1165
0	31125	23.3	1166
0	31150	23.32	1167
0	31175	23.34	1168
0	31200	23.36	1169
0	31225	23.38	1170
0	31250	23.4	1171
0	31275	23.42	1172
0	31300	23.44	1173
0	31325	23.46	1174
0	31350	23.48	1175
0	31375	23.5	1176
0	31405	23.52	1177
0	31430	23.54	1178
0	31455	23.56	1179
0	31480	23.58	1180
0	31505	23.6	1181
0	31530	23.62	1182
0	31555	23.64	1183
0	31580	23.66	1184
0	31605	23.68	1185
0	31630	23.7	1186
0	31655	23.72	1187
0	31680	23.74	1188
0	31705	23.76	1189
0	31730	23.78	1190
0	31755	23.8	1191
0	31780	23.82	1192
0	31805	23.84	1193
0	31830	23.86	1194
0	31855	23.88	1195
0	31880	23.9	1196
0	31905	23.92	1197
0	31930	23.94	1198
0	31955	23.96	1199
0	31980	23.98	1200
0	32005	24	1201
0	32035	24.02	1202
0	32060	24.04	1203
0	32085	24.06	1204
0	32110	24.08	1205
0	32135	24.1	1206
0	32160	24.12	1207
0	32185	24.14	1208
0	32210	24.16	1209
0	32235	24.18	1210
0	32260	24.2	1211
0	32285	24.22	1212
0	32310	24.24	1213
0	32335	24.26	1214
0	32360	24.28	1215
0	32385	24.3	1216
0	32410	24.32	1217
0	32435	24.34	1218
0	32460	24.36	1219
0	32485	24.38	1220
0	32510	24.4	1221
0	32535	24.42	1222
0	32560	24.44	1223
0	32585	24.46	1224
0	32610	24.48	1225
0	32635	24.5	1226
0	32665	24.52	1227
0	32690	24.54	1228
0	32715	24.56	1229
0	32740	24.58	1230
0	32765	24.6	1231
0	32790	24.62	1232
0	32815	24.64	1233
0	32840	24.66	1234
0	32865	24.68	1235
0	32890	24.7	1236
0	32915	24.72	1237
0	32940	24.74	1238
0	32965	24.76	1239
0	32990	24.78	1240
0	33015	24.8	1241
0	33040	24.82	1242
0	33065	24.84	1243
0	33090	24.86	1244
0	33115	24.88	1245
0	33140	24.9	1246
0	33165	24.92	1247
0	33190	24.94	1248
0	33215	24.96	1249
0	33240	24.98	1250
0	33265	25	1251
0	33295	25.02	1252
0	33320	25.04	1253
0	33345	25.06	1254
0	33370	25.08	1255
0	33395	25.1	1256
0	33420	25.12	1257
0	33445	25.14	1258
0	33470	25.16	1259
0	33495	25.18	1260
0	33520	25.2	1261
0	33545	25.22	1262
0	33570	25.24	1263
0	33595	25.26	1264
0	33620	25.28	1265
0	33645	25.3	1266
0	33670	25.32	1267
0	33695	25.34	1268
0	33720	25.36	1269
0	33745	25.38	1270
0	33770	25.4	1271
0	33795	25.42	1272
0	33820	25.44	1273
0	33845	25.46	1274
0	33870	25.48	1275
0	33895	25.5	1276
0	33925	25.52	1277
0	33950	25.54	1278
0	33975	25.56	1279
0	34000	25.58	1280
0	34025	25.6	1281
0	34050	25.62	1282
0	34075	25.64	1283
0	34100	25.66	1284
0	34125	25.68	1285
0	34150	25.7	1286
0	34175	25.72	1287
0	34200	25.74	1288
0	34225	25.76	1289
0	34250	25.78	1290
0	34275	25.8	1291
0	34300	25.82	1292
0	34325	25.84	1293
0	34350	25.86	1294
0	34375	25.88	1295
0	34400	25.9	1296
0	34425	25.92	1297
0	34450	25.94	1298
0	34475	25.96	1299
0	34500	25.98	1300
0	34525	26	1301
0	34555	26.02	1302
0	34580	26.04	1303
0	34605	26.06	1304
0	34630	26.08	1305
0	34655	26.1	1306
0	34680	26.12	1307
0	34705	26.14	1308
0	34730	26.16	1309
0	34755	26.18	1310
0	34780	26.2	1311
0	34805	26.22	1312
0	34830	26.24	1313
0	34855	26.26	1314
0	34880	26.28	1315
0	34905	26.3	1316
0	34930	26.32	1317
0	34955	26.34	1318
0	34980	26.36	1319
0	35005	26.38	1320
0	35030	26.4	1321
0	35055	26.42	1322
0	35080	26.44	1323
0	35105	26.46	1324
0	35130	26.48	1325
0	35155	26.5	1326
0	35185	26.52	1327
0	35210	26.54	1328
0	35235	26.56	1329
0	35260	26.58	1330
0	35285	26.6	1331
0	35310	26.62	1332
0	35335	26.64	1333
0	35360	26.66	1334
0	35385	26.68	1335
0	35410	26.7	1336
0	35435	26.72	1337
0	35460	26.74	1338
0	35485	26.76	1339
0	35510	26.78	1340
0	35535	26.8	1341
0	35560	26.82	1342
0	35585	26.84	1343
0	35610	26.86	1344
0	35635	26.88	1345
0	35660	26.9	1346
0	35685	26.92	1347
0	35710	26.94	1348
0	35735	26.96	1349
0	35760	26.98	1350
0	35785	27	1351
0	35815	27.02	1352
0	35840	27.04	1353
0	35865	27.06	1354
0	35890	27.08	1355
0	35915	27.1	1356
0	35940	27.12	1357
0	35965	27.14	1358
0	35990	27.16	1359
0	36015	27.18	1360
0	36040	27.2	1361
0	36065	27.22	1362
0	36090	27.24	1363
0	36115	27.26	1364
0	36140	27.28	1365
0	36165	27.3	1366