version 2
run simpleNet-0-20181105-05:57:34-11412
attr configname simpleNet
attr datetime 20181105-05:57:34
attr experiment simpleNet
attr inifile omnetpp.ini
attr iterationvars ""
attr iterationvarsf ""
attr measurement ""
attr network simpleNet
attr processid 11412
attr repetition 0
attr replication #0
attr resultdir results
attr runnumber 0
attr seedset 0

vector 0 simpleNet.node[0] numInQueue:vector ETV
attr interpolationmode none
attr source numInQueue
attr title "total num in queue, vector"
vector 1 simpleNet.node[0] numProcessed:vector ETV
attr interpolationmode none
attr source numProcessed
attr title "num processed in statRate time, vector"
vector 2 simpleNet.node[1] numInQueue:vector ETV
attr interpolationmode none
attr source numInQueue
attr title "total num in queue, vector"
vector 3 simpleNet.node[1] numProcessed:vector ETV
attr interpolationmode none
attr source numProcessed
attr title "num processed in statRate time, vector"
vector 4 simpleNet.node[2] numInQueue:vector ETV
attr interpolationmode none
attr source numInQueue
attr title "total num in queue, vector"
vector 5 simpleNet.node[2] numProcessed:vector ETV
attr interpolationmode none
attr source numProcessed
attr title "num processed in statRate time, vector"
vector 6 simpleNet.node[3] numInQueue:vector ETV
attr interpolationmode none
attr source numInQueue
attr title "total num in queue, vector"
vector 7 simpleNet.node[3] numProcessed:vector ETV
attr interpolationmode none
attr source numProcessed
attr title "num processed in statRate time, vector"
vector 8 simpleNet.node[4] numInQueue:vector ETV
attr interpolationmode none
attr source numInQueue
attr title "total num in queue, vector"
vector 9 simpleNet.node[4] numProcessed:vector ETV
attr interpolationmode none
attr source numProcessed
attr title "num processed in statRate time, vector"
0	3	0	0
0	58	0.5	0
0	76	1	0
0	120	1.5	0
0	138	2	0
0	182	2.5	0
0	200	3	0
0	244	3.5	0
0	262	4	0
0	306	4.5	0
0	324	5	0
0	368	5.5	0
0	386	6	0
0	430	6.5	0
0	448	7	0
0	492	7.5	0
0	510	8	0
0	554	8.5	0
0	572	9	0
0	616	9.5	0
0	634	10	0
0	660	10.5	0
0	678	11	0
0	704	11.5	0
0	722	12	0
0	748	12.5	0
0	766	13	0
0	792	13.5	0
0	810	14	0
0	836	14.5	0
0	854	15	0
0	880	15.5	0
0	898	16	0
0	924	16.5	0
0	942	17	0
0	968	17.5	0
0	986	18	0
0	1012	18.5	0
0	1030	19	0
0	1056	19.5	0
0	1074	20	2
0	1091	20.5	2
0	1109	21	4
0	1126	21.5	4
0	1144	22	6
0	1161	22.5	6
0	1179	23	8
0	1196	23.5	8
0	1214	24	10
0	1231	24.5	10
0	1249	25	12
0	1266	25.5	12
0	1284	26	14
0	1301	26.5	14
0	1319	27	16
0	1336	27.5	16
0	1354	28	18
0	1371	28.5	18
0	1389	29	20
0	1406	29.5	20
0	1424	30	22
0	1441	30.5	22
0	1459	31	24
0	1476	31.5	24
0	1494	32	26
0	1511	32.5	26
0	1529	33	28
0	1546	33.5	28
0	1564	34	30
0	1581	34.5	30
0	1599	35	32
0	1616	35.5	32
0	1634	36	34
0	1651	36.5	34
0	1669	37	36
0	1686	37.5	36
0	1704	38	38
0	1721	38.5	38
0	1739	39	40
0	1756	39.5	40
0	1774	40	42
0	1791	40.5	42
0	1809	41	44
0	1826	41.5	44
0	1844	42	46
0	1861	42.5	46
0	1879	43	48
0	1896	43.5	48
0	1914	44	50
0	1931	44.5	50
0	1949	45	52
0	1966	45.5	52
0	1984	46	54
0	2001	46.5	54
0	2019	47	56
0	2036	47.5	56
0	2054	48	58
0	2071	48.5	58
0	2089	49	60
0	2106	49.5	60
0	2124	50	62
0	2141	50.5	62
0	2159	51	64
0	2176	51.5	64
0	2194	52	66
0	2211	52.5	66
0	2229	53	68
0	2246	53.5	68
0	2264	54	70
0	2281	54.5	70
0	2299	55	72
0	2316	55.5	72
0	2334	56	74
0	2351	56.5	74
0	2369	57	76
0	2386	57.5	76
0	2404	58	78
0	2421	58.5	78
0	2439	59	80
0	2456	59.5	80
0	2474	60	82
0	2491	60.5	82
0	2509	61	84
0	2526	61.5	84
0	2544	62	86
0	2561	62.5	86
0	2579	63	88
0	2596	63.5	88
0	2614	64	90
0	2631	64.5	90
0	2649	65	92
0	2666	65.5	92
0	2684	66	94
0	2701	66.5	94
0	2719	67	96
0	2736	67.5	96
0	2754	68	98
0	2771	68.5	98
0	2789	69	100
0	2806	69.5	100
0	2824	70	102
0	2841	70.5	102
0	2859	71	104
0	2876	71.5	104
0	2894	72	106
0	2911	72.5	106
0	2929	73	108
0	2946	73.5	108
0	2964	74	110
0	2981	74.5	110
0	2999	75	112
0	3016	75.5	112
0	3034	76	114
0	3051	76.5	114
0	3069	77	116
0	3086	77.5	116
0	3104	78	118
0	3121	78.5	118
0	3139	79	120
0	3156	79.5	120
0	3174	80	122
0	3191	80.5	122
0	3209	81	124
0	3226	81.5	124
0	3244	82	126
0	3261	82.5	126
0	3279	83	128
0	3296	83.5	128
0	3314	84	130
0	3331	84.5	130
0	3349	85	132
0	3366	85.5	132
0	3384	86	134
0	3401	86.5	134
0	3419	87	136
0	3436	87.5	136
0	3454	88	138
0	3471	88.5	138
0	3489	89	140
0	3506	89.5	140
0	3524	90	142
0	3541	90.5	142
0	3559	91	144
0	3576	91.5	144
0	3594	92	146
0	3611	92.5	146
0	3629	93	148
0	3646	93.5	148
0	3664	94	150
0	3681	94.5	150
0	3699	95	152
0	3716	95.5	152
0	3734	96	154
0	3751	96.5	154
0	3769	97	156
0	3786	97.5	156
0	3804	98	158
0	3821	98.5	158
0	3839	99	160
0	3856	99.5	160
0	3861	100	160
0	3866	100.5	160
1	3	0	0
1	58	0.5	4
1	76	1	0
1	120	1.5	4
1	138	2	0
1	182	2.5	4
1	200	3	0
1	244	3.5	4
1	262	4	0
1	306	4.5	4
1	324	5	0
1	368	5.5	4
1	386	6	0
1	430	6.5	4
1	448	7	0
1	492	7.5	4
1	510	8	0
1	554	8.5	4
1	572	9	0
1	616	9.5	4
1	634	10	0
1	660	10.5	2
1	678	11	0
1	704	11.5	2
1	722	12	0
1	748	12.5	2
1	766	13	0
1	792	13.5	2
1	810	14	0
1	836	14.5	2
1	854	15	0
1	880	15.5	2
1	898	16	0
1	924	16.5	2
1	942	17	0
1	968	17.5	2
1	986	18	0
1	1012	18.5	2
1	1030	19	0
1	1056	19.5	2
1	1074	20	0
1	1091	20.5	0
1	1109	21	0
1	1126	21.5	0
1	1144	22	0
1	1161	22.5	0
1	1179	23	0
1	1196	23.5	0
1	1214	24	0
1	1231	24.5	0
1	1249	25	0
1	1266	25.5	0
1	1284	26	0
1	1301	26.5	0
1	1319	27	0
1	1336	27.5	0
1	1354	28	0
1	1371	28.5	0
1	1389	29	0
1	1406	29.5	0
1	1424	30	0
1	1441	30.5	0
1	1459	31	0
1	1476	31.5	0
1	1494	32	0
1	1511	32.5	0
1	1529	33	0
1	1546	33.5	0
1	1564	34	0
1	1581	34.5	0
1	1599	35	0
1	1616	35.5	0
1	1634	36	0
1	1651	36.5	0
1	1669	37	0
1	1686	37.5	0
1	1704	38	0
1	1721	38.5	0
1	1739	39	0
1	1756	39.5	0
1	1774	40	0
1	1791	40.5	0
1	1809	41	0
1	1826	41.5	0
1	1844	42	0
1	1861	42.5	0
1	1879	43	0
1	1896	43.5	0
1	1914	44	0
1	1931	44.5	0
1	1949	45	0
1	1966	45.5	0
1	1984	46	0
1	2001	46.5	0
1	2019	47	0
1	2036	47.5	0
1	2054	48	0
1	2071	48.5	0
1	2089	49	0
1	2106	49.5	0
1	2124	50	0
1	2141	50.5	0
1	2159	51	0
1	2176	51.5	0
1	2194	52	0
1	2211	52.5	0
1	2229	53	0
1	2246	53.5	0
1	2264	54	0
1	2281	54.5	0
1	2299	55	0
1	2316	55.5	0
1	2334	56	0
1	2351	56.5	0
1	2369	57	0
1	2386	57.5	0
1	2404	58	0
1	2421	58.5	0
1	2439	59	0
1	2456	59.5	0
1	2474	60	0
1	2491	60.5	0
1	2509	61	0
1	2526	61.5	0
1	2544	62	0
1	2561	62.5	0
1	2579	63	0
1	2596	63.5	0
1	2614	64	0
1	2631	64.5	0
1	2649	65	0
1	2666	65.5	0
1	2684	66	0
1	2701	66.5	0
1	2719	67	0
1	2736	67.5	0
1	2754	68	0
1	2771	68.5	0
1	2789	69	0
1	2806	69.5	0
1	2824	70	0
1	2841	70.5	0
1	2859	71	0
1	2876	71.5	0
1	2894	72	0
1	2911	72.5	0
1	2929	73	0
1	2946	73.5	0
1	2964	74	0
1	2981	74.5	0
1	2999	75	0
1	3016	75.5	0
1	3034	76	0
1	3051	76.5	0
1	3069	77	0
1	3086	77.5	0
1	3104	78	0
1	3121	78.5	0
1	3139	79	0
1	3156	79.5	0
1	3174	80	0
1	3191	80.5	0
1	3209	81	0
1	3226	81.5	0
1	3244	82	0
1	3261	82.5	0
1	3279	83	0
1	3296	83.5	0
1	3314	84	0
1	3331	84.5	0
1	3349	85	0
1	3366	85.5	0
1	3384	86	0
1	3401	86.5	0
1	3419	87	0
1	3436	87.5	0
1	3454	88	0
1	3471	88.5	0
1	3489	89	0
1	3506	89.5	0
1	3524	90	0
1	3541	90.5	0
1	3559	91	0
1	3576	91.5	0
1	3594	92	0
1	3611	92.5	0
1	3629	93	0
1	3646	93.5	0
1	3664	94	0
1	3681	94.5	0
1	3699	95	0
1	3716	95.5	0
1	3734	96	0
1	3751	96.5	0
1	3769	97	0
1	3786	97.5	0
1	3804	98	0
1	3821	98.5	0
1	3839	99	0
1	3856	99.5	0
1	3861	100	0
1	3866	100.5	0
2	6	0	0
2	59	0.5	0
2	77	1	0
2	121	1.5	0
2	139	2	0
2	183	2.5	0
2	201	3	0
2	245	3.5	0
2	263	4	0
2	307	4.5	0
2	325	5	0
2	369	5.5	0
2	387	6	0
2	431	6.5	0
2	449	7	0
2	493	7.5	0
2	511	8	0
2	555	8.5	0
2	573	9	0
2	617	9.5	0
2	635	10	2
2	661	10.5	2
2	679	11	4
2	705	11.5	4
2	723	12	6
2	749	12.5	6
2	767	13	8
2	793	13.5	8
2	811	14	10
2	837	14.5	10
2	855	15	12
2	881	15.5	12
2	899	16	14
2	925	16.5	14
2	943	17	16
2	969	17.5	16
2	987	18	18
2	1013	18.5	18
2	1031	19	20
2	1057	19.5	20
2	1075	20	22
2	1092	20.5	22
2	1110	21	24
2	1127	21.5	24
2	1145	22	26
2	1162	22.5	26
2	1180	23	28
2	1197	23.5	28
2	1215	24	30
2	1232	24.5	30
2	1250	25	32
2	1267	25.5	32
2	1285	26	34
2	1302	26.5	34
2	1320	27	36
2	1337	27.5	36
2	1355	28	38
2	1372	28.5	38
2	1390	29	40
2	1407	29.5	40
2	1425	30	42
2	1442	30.5	42
2	1460	31	44
2	1477	31.5	44
2	1495	32	46
2	1512	32.5	46
2	1530	33	48
2	1547	33.5	48
2	1565	34	50
2	1582	34.5	50
2	1600	35	52
2	1617	35.5	52
2	1635	36	54
2	1652	36.5	54
2	1670	37	56
2	1687	37.5	56
2	1705	38	58
2	1722	38.5	58
2	1740	39	60
2	1757	39.5	60
2	1775	40	62
2	1792	40.5	62
2	1810	41	64
2	1827	41.5	64
2	1845	42	66
2	1862	42.5	66
2	1880	43	68
2	1897	43.5	68
2	1915	44	70
2	1932	44.5	70
2	1950	45	72
2	1967	45.5	72
2	1985	46	74
2	2002	46.5	74
2	2020	47	76
2	2037	47.5	76
2	2055	48	78
2	2072	48.5	78
2	2090	49	80
2	2107	49.5	80
2	2125	50	82
2	2142	50.5	82
2	2160	51	84
2	2177	51.5	84
2	2195	52	86
2	2212	52.5	86
2	2230	53	88
2	2247	53.5	88
2	2265	54	90
2	2282	54.5	90
2	2300	55	92
2	2317	55.5	92
2	2335	56	94
2	2352	56.5	94
2	2370	57	96
2	2387	57.5	96
2	2405	58	98
2	2422	58.5	98
2	2440	59	100
2	2457	59.5	100
2	2475	60	102
2	2492	60.5	102
2	2510	61	104
2	2527	61.5	104
2	2545	62	106
2	2562	62.5	106
2	2580	63	108
2	2597	63.5	108
2	2615	64	110
2	2632	64.5	110
2	2650	65	112
2	2667	65.5	112
2	2685	66	114
2	2702	66.5	114
2	2720	67	116
2	2737	67.5	116
2	2755	68	118
2	2772	68.5	118
2	2790	69	120
2	2807	69.5	120
2	2825	70	122
2	2842	70.5	122
2	2860	71	124
2	2877	71.5	124
2	2895	72	126
2	2912	72.5	126
2	2930	73	128
2	2947	73.5	128
2	2965	74	130
2	2982	74.5	130
2	3000	75	132
2	3017	75.5	132
2	3035	76	134
2	3052	76.5	134
2	3070	77	136
2	3087	77.5	136
2	3105	78	138
2	3122	78.5	138
2	3140	79	140
2	3157	79.5	140
2	3175	80	142
2	3192	80.5	142
2	3210	81	144
2	3227	81.5	144
2	3245	82	146
2	3262	82.5	146
2	3280	83	148
2	3297	83.5	148
2	3315	84	150
2	3332	84.5	150
2	3350	85	152
2	3367	85.5	152
2	3385	86	154
2	3402	86.5	154
2	3420	87	156
2	3437	87.5	156
2	3455	88	158
2	3472	88.5	158
2	3490	89	160
2	3507	89.5	160
2	3525	90	162
2	3542	90.5	162
2	3560	91	164
2	3577	91.5	164
2	3595	92	166
2	3612	92.5	166
2	3630	93	168
2	3647	93.5	168
2	3665	94	170
2	3682	94.5	170
2	3700	95	172
2	3717	95.5	172
2	3735	96	174
2	3752	96.5	174
2	3770	97	176
2	3787	97.5	176
2	3805	98	178
2	3822	98.5	178
2	3840	99	180
2	3857	99.5	180
2	3862	100	180
2	3867	100.5	180
3	6	0	0
3	59	0.5	4
3	77	1	0
3	121	1.5	4
3	139	2	0
3	183	2.5	4
3	201	3	0
3	245	3.5	4
3	263	4	0
3	307	4.5	4
3	325	5	0
3	369	5.5	4
3	387	6	0
3	431	6.5	4
3	449	7	0
3	493	7.5	4
3	511	8	0
3	555	8.5	4
3	573	9	0
3	617	9.5	4
3	635	10	0
3	661	10.5	2
3	679	11	0
3	705	11.5	2
3	723	12	0
3	749	12.5	2
3	767	13	0
3	793	13.5	2
3	811	14	0
3	837	14.5	2
3	855	15	0
3	881	15.5	2
3	899	16	0
3	925	16.5	2
3	943	17	0
3	969	17.5	2
3	987	18	0
3	1013	18.5	2
3	1031	19	0
3	1057	19.5	2
3	1075	20	0
3	1092	20.5	0
3	1110	21	0
3	1127	21.5	0
3	1145	22	0
3	1162	22.5	0
3	1180	23	0
3	1197	23.5	0
3	1215	24	0
3	1232	24.5	0
3	1250	25	0
3	1267	25.5	0
3	1285	26	0
3	1302	26.5	0
3	1320	27	0
3	1337	27.5	0
3	1355	28	0
3	1372	28.5	0
3	1390	29	0
3	1407	29.5	0
3	1425	30	0
3	1442	30.5	0
3	1460	31	0
3	1477	31.5	0
3	1495	32	0
3	1512	32.5	0
3	1530	33	0
3	1547	33.5	0
3	1565	34	0
3	1582	34.5	0
3	1600	35	0
3	1617	35.5	0
3	1635	36	0
3	1652	36.5	0
3	1670	37	0
3	1687	37.5	0
3	1705	38	0
3	1722	38.5	0
3	1740	39	0
3	1757	39.5	0
3	1775	40	0
3	1792	40.5	0
3	1810	41	0
3	1827	41.5	0
3	1845	42	0
3	1862	42.5	0
3	1880	43	0
3	1897	43.5	0
3	1915	44	0
3	1932	44.5	0
3	1950	45	0
3	1967	45.5	0
3	1985	46	0
3	2002	46.5	0
3	2020	47	0
3	2037	47.5	0
3	2055	48	0
3	2072	48.5	0
3	2090	49	0
3	2107	49.5	0
3	2125	50	0
3	2142	50.5	0
3	2160	51	0
3	2177	51.5	0
3	2195	52	0
3	2212	52.5	0
3	2230	53	0
3	2247	53.5	0
3	2265	54	0
3	2282	54.5	0
3	2300	55	0
3	2317	55.5	0
3	2335	56	0
3	2352	56.5	0
3	2370	57	0
3	2387	57.5	0
3	2405	58	0
3	2422	58.5	0
3	2440	59	0
3	2457	59.5	0
3	2475	60	0
3	2492	60.5	0
3	2510	61	0
3	2527	61.5	0
3	2545	62	0
3	2562	62.5	0
3	2580	63	0
3	2597	63.5	0
3	2615	64	0
3	2632	64.5	0
3	2650	65	0
3	2667	65.5	0
3	2685	66	0
3	2702	66.5	0
3	2720	67	0
3	2737	67.5	0
3	2755	68	0
3	2772	68.5	0
3	2790	69	0
3	2807	69.5	0
3	2825	70	0
3	2842	70.5	0
3	2860	71	0
3	2877	71.5	0
3	2895	72	0
3	2912	72.5	0
3	2930	73	0
3	2947	73.5	0
3	2965	74	0
3	2982	74.5	0
3	3000	75	0
3	3017	75.5	0
3	3035	76	0
3	3052	76.5	0
3	3070	77	0
3	3087	77.5	0
3	3105	78	0
3	3122	78.5	0
3	3140	79	0
3	3157	79.5	0
3	3175	80	0
3	3192	80.5	0
3	3210	81	0
3	3227	81.5	0
3	3245	82	0
3	3262	82.5	0
3	3280	83	0
3	3297	83.5	0
3	3315	84	0
3	3332	84.5	0
3	3350	85	0
3	3367	85.5	0
3	3385	86	0
3	3402	86.5	0
3	3420	87	0
3	3437	87.5	0
3	3455	88	0
3	3472	88.5	0
3	3490	89	0
3	3507	89.5	0
3	3525	90	0
3	3542	90.5	0
3	3560	91	0
3	3577	91.5	0
3	3595	92	0
3	3612	92.5	0
3	3630	93	0
3	3647	93.5	0
3	3665	94	0
3	3682	94.5	0
3	3700	95	0
3	3717	95.5	0
3	3735	96	0
3	3752	96.5	0
3	3770	97	0
3	3787	97.5	0
3	3805	98	0
3	3822	98.5	0
3	3840	99	0
3	3857	99.5	0
3	3862	100	0
3	3867	100.5	0
4	10	0	0
4	60	0.5	0
4	78	1	0
4	122	1.5	0
4	140	2	0
4	184	2.5	0
4	202	3	0
4	246	3.5	0
4	264	4	0
4	308	4.5	0
4	326	5	0
4	370	5.5	0
4	388	6	0
4	432	6.5	0
4	450	7	0
4	494	7.5	0
4	512	8	0
4	556	8.5	0
4	574	9	0
4	618	9.5	0
4	636	10	0
4	662	10.5	0
4	680	11	0
4	706	11.5	0
4	724	12	0
4	750	12.5	0
4	768	13	0
4	794	13.5	0
4	812	14	0
4	838	14.5	0
4	856	15	0
4	882	15.5	0
4	900	16	0
4	926	16.5	0
4	944	17	0
4	970	17.5	0
4	988	18	0
4	1014	18.5	0
4	1032	19	0
4	1058	19.5	0
4	1076	20	1
4	1093	20.5	1
4	1111	21	2
4	1128	21.5	2
4	1146	22	3
4	1163	22.5	3
4	1181	23	4
4	1198	23.5	4
4	1216	24	5
4	1233	24.5	5
4	1251	25	6
4	1268	25.5	6
4	1286	26	7
4	1303	26.5	7
4	1321	27	8
4	1338	27.5	8
4	1356	28	9
4	1373	28.5	9
4	1391	29	10
4	1408	29.5	10
4	1426	30	11
4	1443	30.5	11
4	1461	31	12
4	1478	31.5	12
4	1496	32	13
4	1513	32.5	13
4	1531	33	14
4	1548	33.5	14
4	1566	34	15
4	1583	34.5	15
4	1601	35	16
4	1618	35.5	16
4	1636	36	17
4	1653	36.5	17
4	1671	37	18
4	1688	37.5	18
4	1706	38	19
4	1723	38.5	19
4	1741	39	20
4	1758	39.5	20
4	1776	40	21
4	1793	40.5	21
4	1811	41	22
4	1828	41.5	22
4	1846	42	23
4	1863	42.5	23
4	1881	43	24
4	1898	43.5	24
4	1916	44	25
4	1933	44.5	25
4	1951	45	26
4	1968	45.5	26
4	1986	46	27
4	2003	46.5	27
4	2021	47	28
4	2038	47.5	28
4	2056	48	29
4	2073	48.5	29
4	2091	49	30
4	2108	49.5	30
4	2126	50	31
4	2143	50.5	31
4	2161	51	32
4	2178	51.5	32
4	2196	52	33
4	2213	52.5	33
4	2231	53	34
4	2248	53.5	34
4	2266	54	35
4	2283	54.5	35
4	2301	55	36
4	2318	55.5	36
4	2336	56	37
4	2353	56.5	37
4	2371	57	38
4	2388	57.5	38
4	2406	58	39
4	2423	58.5	39
4	2441	59	40
4	2458	59.5	40
4	2476	60	41
4	2493	60.5	41
4	2511	61	42
4	2528	61.5	42
4	2546	62	43
4	2563	62.5	43
4	2581	63	44
4	2598	63.5	44
4	2616	64	45
4	2633	64.5	45
4	2651	65	46
4	2668	65.5	46
4	2686	66	47
4	2703	66.5	47
4	2721	67	48
4	2738	67.5	48
4	2756	68	49
4	2773	68.5	49
4	2791	69	50
4	2808	69.5	50
4	2826	70	51
4	2843	70.5	51
4	2861	71	52
4	2878	71.5	52
4	2896	72	53
4	2913	72.5	53
4	2931	73	54
4	2948	73.5	54
4	2966	74	55
4	2983	74.5	55
4	3001	75	56
4	3018	75.5	56
4	3036	76	57
4	3053	76.5	57
4	3071	77	58
4	3088	77.5	58
4	3106	78	59
4	3123	78.5	59
4	3141	79	60
4	3158	79.5	60
4	3176	80	61
4	3193	80.5	61
4	3211	81	62
4	3228	81.5	62
4	3246	82	63
4	3263	82.5	63
4	3281	83	64
4	3298	83.5	64
4	3316	84	65
4	3333	84.5	65
4	3351	85	66
4	3368	85.5	66
4	3386	86	67
4	3403	86.5	67
4	3421	87	68
4	3438	87.5	68
4	3456	88	69
4	3473	88.5	69
4	3491	89	70
4	3508	89.5	70
4	3526	90	71
4	3543	90.5	71
4	3561	91	72
4	3578	91.5	72
4	3596	92	73
4	3613	92.5	73
4	3631	93	74
4	3648	93.5	74
4	3666	94	75
4	3683	94.5	75
4	3701	95	76
4	3718	95.5	76
4	3736	96	77
4	3753	96.5	77
4	3771	97	78
4	3788	97.5	78
4	3806	98	79
4	3823	98.5	79
4	3841	99	80
4	3858	99.5	80
4	3863	100	80
4	3868	100.5	80
5	10	0	0
5	60	0.5	7
5	78	1	0
5	122	1.5	7
5	140	2	0
5	184	2.5	7
5	202	3	0
5	246	3.5	7
5	264	4	0
5	308	4.5	7
5	326	5	0
5	370	5.5	7
5	388	6	0
5	432	6.5	7
5	450	7	0
5	494	7.5	7
5	512	8	0
5	556	8.5	7
5	574	9	0
5	618	9.5	7
5	636	10	0
5	662	10.5	5
5	680	11	0
5	706	11.5	5
5	724	12	0
5	750	12.5	5
5	768	13	0
5	794	13.5	5
5	812	14	0
5	838	14.5	5
5	856	15	0
5	882	15.5	5
5	900	16	0
5	926	16.5	5
5	944	17	0
5	970	17.5	5
5	988	18	0
5	1014	18.5	5
5	1032	19	0
5	1058	19.5	5
5	1076	20	0
5	1093	20.5	4
5	1111	21	0
5	1128	21.5	4
5	1146	22	0
5	1163	22.5	4
5	1181	23	0
5	1198	23.5	4
5	1216	24	0
5	1233	24.5	4
5	1251	25	0
5	1268	25.5	4
5	1286	26	0
5	1303	26.5	4
5	1321	27	0
5	1338	27.5	4
5	1356	28	0
5	1373	28.5	4
5	1391	29	0
5	1408	29.5	4
5	1426	30	0
5	1443	30.5	4
5	1461	31	0
5	1478	31.5	4
5	1496	32	0
5	1513	32.5	4
5	1531	33	0
5	1548	33.5	4
5	1566	34	0
5	1583	34.5	4
5	1601	35	0
5	1618	35.5	4
5	1636	36	0
5	1653	36.5	4
5	1671	37	0
5	1688	37.5	4
5	1706	38	0
5	1723	38.5	4
5	1741	39	0
5	1758	39.5	4
5	1776	40	0
5	1793	40.5	4
5	1811	41	0
5	1828	41.5	4
5	1846	42	0
5	1863	42.5	4
5	1881	43	0
5	1898	43.5	4
5	1916	44	0
5	1933	44.5	4
5	1951	45	0
5	1968	45.5	4
5	1986	46	0
5	2003	46.5	4
5	2021	47	0
5	2038	47.5	4
5	2056	48	0
5	2073	48.5	4
5	2091	49	0
5	2108	49.5	4
5	2126	50	0
5	2143	50.5	4
5	2161	51	0
5	2178	51.5	4
5	2196	52	0
5	2213	52.5	4
5	2231	53	0
5	2248	53.5	4
5	2266	54	0
5	2283	54.5	4
5	2301	55	0
5	2318	55.5	4
5	2336	56	0
5	2353	56.5	4
5	2371	57	0
5	2388	57.5	4
5	2406	58	0
5	2423	58.5	4
5	2441	59	0
5	2458	59.5	4
5	2476	60	0
5	2493	60.5	4
5	2511	61	0
5	2528	61.5	4
5	2546	62	0
5	2563	62.5	4
5	2581	63	0
5	2598	63.5	4
5	2616	64	0
5	2633	64.5	4
5	2651	65	0
5	2668	65.5	4
5	2686	66	0
5	2703	66.5	4
5	2721	67	0
5	2738	67.5	4
5	2756	68	0
5	2773	68.5	4
5	2791	69	0
5	2808	69.5	4
5	2826	70	0
5	2843	70.5	4
5	2861	71	0
5	2878	71.5	4
5	2896	72	0
5	2913	72.5	4
5	2931	73	0
5	2948	73.5	4
5	2966	74	0
5	2983	74.5	4
5	3001	75	0
5	3018	75.5	4
5	3036	76	0
5	3053	76.5	4
5	3071	77	0
5	3088	77.5	4
5	3106	78	0
5	3123	78.5	4
5	3141	79	0
5	3158	79.5	4
5	3176	80	0
5	3193	80.5	4
5	3211	81	0
5	3228	81.5	4
5	3246	82	0
5	3263	82.5	4
5	3281	83	0
5	3298	83.5	4
5	3316	84	0
5	3333	84.5	4
5	3351	85	0
5	3368	85.5	4
5	3386	86	0
5	3403	86.5	4
5	3421	87	0
5	3438	87.5	4
5	3456	88	0
5	3473	88.5	4
5	3491	89	0
5	3508	89.5	4
5	3526	90	0
5	3543	90.5	4
5	3561	91	0
5	3578	91.5	4
5	3596	92	0
5	3613	92.5	4
5	3631	93	0
5	3648	93.5	4
5	3666	94	0
5	3683	94.5	4
5	3701	95	0
5	3718	95.5	4
5	3736	96	0
5	3753	96.5	4
5	3771	97	0
5	3788	97.5	4
5	3806	98	0
5	3823	98.5	4
5	3841	99	0
5	3858	99.5	4
5	3863	100	0
5	3868	100.5	0
6	15	0	0
6	61	0.5	0
6	79	1	0
6	123	1.5	0
6	141	2	0
6	185	2.5	0
6	203	3	0
6	247	3.5	0
6	265	4	0
6	309	4.5	0
6	327	5	0
6	371	5.5	0
6	389	6	0
6	433	6.5	0
6	451	7	0
6	495	7.5	0
6	513	8	0
6	557	8.5	0
6	575	9	0
6	619	9.5	0
6	637	10	4
6	663	10.5	4
6	681	11	8
6	707	11.5	8
6	725	12	12
6	751	12.5	12
6	769	13	16
6	795	13.5	16
6	813	14	20
6	839	14.5	20
6	857	15	24
6	883	15.5	24
6	901	16	28
6	927	16.5	28
6	945	17	32
6	971	17.5	32
6	989	18	36
6	1015	18.5	36
6	1033	19	40
6	1059	19.5	40
6	1077	20	44
6	1094	20.5	44
6	1112	21	48
6	1129	21.5	48
6	1147	22	52
6	1164	22.5	52
6	1182	23	56
6	1199	23.5	56
6	1217	24	60
6	1234	24.5	60
6	1252	25	64
6	1269	25.5	64
6	1287	26	68
6	1304	26.5	68
6	1322	27	72
6	1339	27.5	72
6	1357	28	76
6	1374	28.5	76
6	1392	29	80
6	1409	29.5	80
6	1427	30	84
6	1444	30.5	84
6	1462	31	88
6	1479	31.5	88
6	1497	32	92
6	1514	32.5	92
6	1532	33	96
6	1549	33.5	96
6	1567	34	100
6	1584	34.5	100
6	1602	35	104
6	1619	35.5	104
6	1637	36	108
6	1654	36.5	108
6	1672	37	112
6	1689	37.5	112
6	1707	38	116
6	1724	38.5	116
6	1742	39	120
6	1759	39.5	120
6	1777	40	124
6	1794	40.5	124
6	1812	41	128
6	1829	41.5	128
6	1847	42	132
6	1864	42.5	132
6	1882	43	136
6	1899	43.5	136
6	1917	44	140
6	1934	44.5	140
6	1952	45	144
6	1969	45.5	144
6	1987	46	148
6	2004	46.5	148
6	2022	47	152
6	2039	47.5	152
6	2057	48	156
6	2074	48.5	156
6	2092	49	160
6	2109	49.5	160
6	2127	50	164
6	2144	50.5	164
6	2162	51	168
6	2179	51.5	168
6	2197	52	172
6	2214	52.5	172
6	2232	53	176
6	2249	53.5	176
6	2267	54	180
6	2284	54.5	180
6	2302	55	184
6	2319	55.5	184
6	2337	56	188
6	2354	56.5	188
6	2372	57	192
6	2389	57.5	192
6	2407	58	196
6	2424	58.5	196
6	2442	59	200
6	2459	59.5	200
6	2477	60	204
6	2494	60.5	204
6	2512	61	208
6	2529	61.5	208
6	2547	62	212
6	2564	62.5	212
6	2582	63	216
6	2599	63.5	216
6	2617	64	220
6	2634	64.5	220
6	2652	65	224
6	2669	65.5	224
6	2687	66	228
6	2704	66.5	228
6	2722	67	232
6	2739	67.5	232
6	2757	68	236
6	2774	68.5	236
6	2792	69	240
6	2809	69.5	240
6	2827	70	244
6	2844	70.5	244
6	2862	71	248
6	2879	71.5	248
6	2897	72	252
6	2914	72.5	252
6	2932	73	256
6	2949	73.5	256
6	2967	74	260
6	2984	74.5	260
6	3002	75	264
6	3019	75.5	264
6	3037	76	268
6	3054	76.5	268
6	3072	77	272
6	3089	77.5	272
6	3107	78	276
6	3124	78.5	276
6	3142	79	280
6	3159	79.5	280
6	3177	80	284
6	3194	80.5	284
6	3212	81	288
6	3229	81.5	288
6	3247	82	292
6	3264	82.5	292
6	3282	83	296
6	3299	83.5	296
6	3317	84	300
6	3334	84.5	300
6	3352	85	304
6	3369	85.5	304
6	3387	86	308
6	3404	86.5	308
6	3422	87	312
6	3439	87.5	312
6	3457	88	316
6	3474	88.5	316
6	3492	89	320
6	3509	89.5	320
6	3527	90	324
6	3544	90.5	324
6	3562	91	328
6	3579	91.5	328
6	3597	92	332
6	3614	92.5	332
6	3632	93	336
6	3649	93.5	336
6	3667	94	340
6	3684	94.5	340
6	3702	95	344
6	3719	95.5	344
6	3737	96	348
6	3754	96.5	348
6	3772	97	352
6	3789	97.5	352
6	3807	98	356
6	3824	98.5	356
6	3842	99	360
6	3859	99.5	360
6	3864	100	360
6	3869	100.5	360
7	15	0	0
7	61	0.5	6
7	79	1	0
7	123	1.5	6
7	141	2	0
7	185	2.5	6
7	203	3	0
7	247	3.5	6
7	265	4	0
7	309	4.5	6
7	327	5	0
7	371	5.5	6
7	389	6	0
7	433	6.5	6
7	451	7	0
7	495	7.5	6
7	513	8	0
7	557	8.5	6
7	575	9	0
7	619	9.5	6
7	637	10	0
7	663	10.5	0
7	681	11	0
7	707	11.5	0
7	725	12	0
7	751	12.5	0
7	769	13	0
7	795	13.5	0
7	813	14	0
7	839	14.5	0
7	857	15	0
7	883	15.5	0
7	901	16	0
7	927	16.5	0
7	945	17	0
7	971	17.5	0
7	989	18	0
7	1015	18.5	0
7	1033	19	0
7	1059	19.5	0
7	1077	20	0
7	1094	20.5	0
7	1112	21	0
7	1129	21.5	0
7	1147	22	0
7	1164	22.5	0
7	1182	23	0
7	1199	23.5	0
7	1217	24	0
7	1234	24.5	0
7	1252	25	0
7	1269	25.5	0
7	1287	26	0
7	1304	26.5	0
7	1322	27	0
7	1339	27.5	0
7	1357	28	0
7	1374	28.5	0
7	1392	29	0
7	1409	29.5	0
7	1427	30	0
7	1444	30.5	0
7	1462	31	0
7	1479	31.5	0
7	1497	32	0
7	1514	32.5	0
7	1532	33	0
7	1549	33.5	0
7	1567	34	0
7	1584	34.5	0
7	1602	35	0
7	1619	35.5	0
7	1637	36	0
7	1654	36.5	0
7	1672	37	0
7	1689	37.5	0
7	1707	38	0
7	1724	38.5	0
7	1742	39	0
7	1759	39.5	0
7	1777	40	0
7	1794	40.5	0
7	1812	41	0
7	1829	41.5	0
7	1847	42	0
7	1864	42.5	0
7	1882	43	0
7	1899	43.5	0
7	1917	44	0
7	1934	44.5	0
7	1952	45	0
7	1969	45.5	0
7	1987	46	0
7	2004	46.5	0
7	2022	47	0
7	2039	47.5	0
7	2057	48	0
7	2074	48.5	0
7	2092	49	0
7	2109	49.5	0
7	2127	50	0
7	2144	50.5	0
7	2162	51	0
7	2179	51.5	0
7	2197	52	0
7	2214	52.5	0
7	2232	53	0
7	2249	53.5	0
7	2267	54	0
7	2284	54.5	0
7	2302	55	0
7	2319	55.5	0
7	2337	56	0
7	2354	56.5	0
7	2372	57	0
7	2389	57.5	0
7	2407	58	0
7	2424	58.5	0
7	2442	59	0
7	2459	59.5	0
7	2477	60	0
7	2494	60.5	0
7	2512	61	0
7	2529	61.5	0
7	2547	62	0
7	2564	62.5	0
7	2582	63	0
7	2599	63.5	0
7	2617	64	0
7	2634	64.5	0
7	2652	65	0
7	2669	65.5	0
7	2687	66	0
7	2704	66.5	0
7	2722	67	0
7	2739	67.5	0
7	2757	68	0
7	2774	68.5	0
7	2792	69	0
7	2809	69.5	0
7	2827	70	0
7	2844	70.5	0
7	2862	71	0
7	2879	71.5	0
7	2897	72	0
7	2914	72.5	0
7	2932	73	0
7	2949	73.5	0
7	2967	74	0
7	2984	74.5	0
7	3002	75	0
7	3019	75.5	0
7	3037	76	0
7	3054	76.5	0
7	3072	77	0
7	3089	77.5	0
7	3107	78	0
7	3124	78.5	0
7	3142	79	0
7	3159	79.5	0
7	3177	80	0
7	3194	80.5	0
7	3212	81	0
7	3229	81.5	0
7	3247	82	0
7	3264	82.5	0
7	3282	83	0
7	3299	83.5	0
7	3317	84	0
7	3334	84.5	0
7	3352	85	0
7	3369	85.5	0
7	3387	86	0
7	3404	86.5	0
7	3422	87	0
7	3439	87.5	0
7	3457	88	0
7	3474	88.5	0
7	3492	89	0
7	3509	89.5	0
7	3527	90	0
7	3544	90.5	0
7	3562	91	0
7	3579	91.5	0
7	3597	92	0
7	3614	92.5	0
7	3632	93	0
7	3649	93.5	0
7	3667	94	0
7	3684	94.5	0
7	3702	95	0
7	3719	95.5	0
7	3737	96	0
7	3754	96.5	0
7	3772	97	0
7	3789	97.5	0
7	3807	98	0
7	3824	98.5	0
7	3842	99	0
7	3859	99.5	0
7	3864	100	0
7	3869	100.5	0
8	18	0	0
8	62	0.5	0
8	80	1	0
8	124	1.5	0
8	142	2	0
8	186	2.5	0
8	204	3	0
8	248	3.5	0
8	266	4	0
8	310	4.5	0
8	328	5	0
8	372	5.5	0
8	390	6	0
8	434	6.5	0
8	452	7	0
8	496	7.5	0
8	514	8	0
8	558	8.5	0
8	576	9	0
8	620	9.5	0
8	638	10	0
8	664	10.5	0
8	682	11	0
8	708	11.5	0
8	726	12	0
8	752	12.5	0
8	770	13	0
8	796	13.5	0
8	814	14	0
8	840	14.5	0
8	858	15	0
8	884	15.5	0
8	902	16	0
8	928	16.5	0
8	946	17	0
8	972	17.5	0
8	990	18	0
8	1016	18.5	0
8	1034	19	0
8	1060	19.5	0
8	1078	20	0
8	1095	20.5	0
8	1113	21	0
8	1130	21.5	0
8	1148	22	0
8	1165	22.5	0
8	1183	23	0
8	1200	23.5	0
8	1218	24	0
8	1235	24.5	0
8	1253	25	0
8	1270	25.5	0
8	1288	26	0
8	1305	26.5	0
8	1323	27	0
8	1340	27.5	0
8	1358	28	0
8	1375	28.5	0
8	1393	29	0
8	1410	29.5	0
8	1428	30	0
8	1445	30.5	0
8	1463	31	0
8	1480	31.5	0
8	1498	32	0
8	1515	32.5	0
8	1533	33	0
8	1550	33.5	0
8	1568	34	0
8	1585	34.5	0
8	1603	35	0
8	1620	35.5	0
8	1638	36	0
8	1655	36.5	0
8	1673	37	0
8	1690	37.5	0
8	1708	38	0
8	1725	38.5	0
8	1743	39	0
8	1760	39.5	0
8	1778	40	0
8	1795	40.5	0
8	1813	41	0
8	1830	41.5	0
8	1848	42	0
8	1865	42.5	0
8	1883	43	0
8	1900	43.5	0
8	1918	44	0
8	1935	44.5	0
8	1953	45	0
8	1970	45.5	0
8	1988	46	0
8	2005	46.5	0
8	2023	47	0
8	2040	47.5	0
8	2058	48	0
8	2075	48.5	0
8	2093	49	0
8	2110	49.5	0
8	2128	50	0
8	2145	50.5	0
8	2163	51	0
8	2180	51.5	0
8	2198	52	0
8	2215	52.5	0
8	2233	53	0
8	2250	53.5	0
8	2268	54	0
8	2285	54.5	0
8	2303	55	0
8	2320	55.5	0
8	2338	56	0
8	2355	56.5	0
8	2373	57	0
8	2390	57.5	0
8	2408	58	0
8	2425	58.5	0
8	2443	59	0
8	2460	59.5	0
8	2478	60	0
8	2495	60.5	0
8	2513	61	0
8	2530	61.5	0
8	2548	62	0
8	2565	62.5	0
8	2583	63	0
8	2600	63.5	0
8	2618	64	0
8	2635	64.5	0
8	2653	65	0
8	2670	65.5	0
8	2688	66	0
8	2705	66.5	0
8	2723	67	0
8	2740	67.5	0
8	2758	68	0
8	2775	68.5	0
8	2793	69	0
8	2810	69.5	0
8	2828	70	0
8	2845	70.5	0
8	2863	71	0
8	2880	71.5	0
8	2898	72	0
8	2915	72.5	0
8	2933	73	0
8	2950	73.5	0
8	2968	74	0
8	2985	74.5	0
8	3003	75	0
8	3020	75.5	0
8	3038	76	0
8	3055	76.5	0
8	3073	77	0
8	3090	77.5	0
8	3108	78	0
8	3125	78.5	0
8	3143	79	0
8	3160	79.5	0
8	3178	80	0
8	3195	80.5	0
8	3213	81	0
8	3230	81.5	0
8	3248	82	0
8	3265	82.5	0
8	3283	83	0
8	3300	83.5	0
8	3318	84	0
8	3335	84.5	0
8	3353	85	0
8	3370	85.5	0
8	3388	86	0
8	3405	86.5	0
8	3423	87	0
8	3440	87.5	0
8	3458	88	0
8	3475	88.5	0
8	3493	89	0
8	3510	89.5	0
8	3528	90	0
8	3545	90.5	0
8	3563	91	0
8	3580	91.5	0
8	3598	92	0
8	3615	92.5	0
8	3633	93	0
8	3650	93.5	0
8	3668	94	0
8	3685	94.5	0
8	3703	95	0
8	3720	95.5	0
8	3738	96	0
8	3755	96.5	0
8	3773	97	0
8	3790	97.5	0
8	3808	98	0
8	3825	98.5	0
8	3843	99	0
8	3860	99.5	0
8	3865	100	0
8	3870	100.5	0
9	18	0	0
9	62	0.5	5
9	80	1	0
9	124	1.5	5
9	142	2	0
9	186	2.5	5
9	204	3	0
9	248	3.5	5
9	266	4	0
9	310	4.5	5
9	328	5	0
9	372	5.5	5
9	390	6	0
9	434	6.5	5
9	452	7	0
9	496	7.5	5
9	514	8	0
9	558	8.5	5
9	576	9	0
9	620	9.5	5
9	638	10	0
9	664	10.5	5
9	682	11	0
9	708	11.5	5
9	726	12	0
9	752	12.5	5
9	770	13	0
9	796	13.5	5
9	814	14	0
9	840	14.5	5
9	858	15	0
9	884	15.5	5
9	902	16	0
9	928	16.5	5
9	946	17	0
9	972	17.5	5
9	990	18	0
9	1016	18.5	5
9	1034	19	0
9	1060	19.5	5
9	1078	20	0
9	1095	20.5	4
9	1113	21	0
9	1130	21.5	4
9	1148	22	0
9	1165	22.5	4
9	1183	23	0
9	1200	23.5	4
9	1218	24	0
9	1235	24.5	4
9	1253	25	0
9	1270	25.5	4
9	1288	26	0
9	1305	26.5	4
9	1323	27	0
9	1340	27.5	4
9	1358	28	0
9	1375	28.5	4
9	1393	29	0
9	1410	29.5	4
9	1428	30	0
9	1445	30.5	4
9	1463	31	0
9	1480	31.5	4
9	1498	32	0
9	1515	32.5	4
9	1533	33	0
9	1550	33.5	4
9	1568	34	0
9	1585	34.5	4
9	1603	35	0
9	1620	35.5	4
9	1638	36	0
9	1655	36.5	4
9	1673	37	0
9	1690	37.5	4
9	1708	38	0
9	1725	38.5	4
9	1743	39	0
9	1760	39.5	4
9	1778	40	0
9	1795	40.5	4
9	1813	41	0
9	1830	41.5	4
9	1848	42	0
9	1865	42.5	4
9	1883	43	0
9	1900	43.5	4
9	1918	44	0
9	1935	44.5	4
9	1953	45	0
9	1970	45.5	4
9	1988	46	0
9	2005	46.5	4
9	2023	47	0
9	2040	47.5	4
9	2058	48	0
9	2075	48.5	4
9	2093	49	0
9	2110	49.5	4
9	2128	50	0
9	2145	50.5	4
9	2163	51	0
9	2180	51.5	4
9	2198	52	0
9	2215	52.5	4
9	2233	53	0
9	2250	53.5	4
9	2268	54	0
9	2285	54.5	4
9	2303	55	0
9	2320	55.5	4
9	2338	56	0
9	2355	56.5	4
9	2373	57	0
9	2390	57.5	4
9	2408	58	0
9	2425	58.5	4
9	2443	59	0
9	2460	59.5	4
9	2478	60	0
9	2495	60.5	4
9	2513	61	0
9	2530	61.5	4
9	2548	62	0
9	2565	62.5	4
9	2583	63	0
9	2600	63.5	4
9	2618	64	0
9	2635	64.5	4
9	2653	65	0
9	2670	65.5	4
9	2688	66	0
9	2705	66.5	4
9	2723	67	0
9	2740	67.5	4
9	2758	68	0
9	2775	68.5	4
9	2793	69	0
9	2810	69.5	4
9	2828	70	0
9	2845	70.5	4
9	2863	71	0
9	2880	71.5	4
9	2898	72	0
9	2915	72.5	4
9	2933	73	0
9	2950	73.5	4
9	2968	74	0
9	2985	74.5	4
9	3003	75	0
9	3020	75.5	4
9	3038	76	0
9	3055	76.5	4
9	3073	77	0
9	3090	77.5	4
9	3108	78	0
9	3125	78.5	4
9	3143	79	0
9	3160	79.5	4
9	3178	80	0
9	3195	80.5	4
9	3213	81	0
9	3230	81.5	4
9	3248	82	0
9	3265	82.5	4
9	3283	83	0
9	3300	83.5	4
9	3318	84	0
9	3335	84.5	4
9	3353	85	0
9	3370	85.5	4
9	3388	86	0
9	3405	86.5	4
9	3423	87	0
9	3440	87.5	4
9	3458	88	0
9	3475	88.5	4
9	3493	89	0
9	3510	89.5	4
9	3528	90	0
9	3545	90.5	4
9	3563	91	0
9	3580	91.5	4
9	3598	92	0
9	3615	92.5	4
9	3633	93	0
9	3650	93.5	4
9	3668	94	0
9	3685	94.5	4
9	3703	95	0
9	3720	95.5	4
9	3738	96	0
9	3755	96.5	4
9	3773	97	0
9	3790	97.5	4
9	3808	98	0
9	3825	98.5	4
9	3843	99	0
9	3860	99.5	4
9	3865	100	0
9	3870	100.5	0

