version 2
run simpleNet-0-20181128-01:26:20-66429
attr configname simpleNet
attr datetime 20181128-01:26:20
attr experiment simpleNet
attr inifile omnetpp.ini
attr iterationvars ""
attr iterationvarsf ""
attr measurement ""
attr network simpleNet
attr processid 66429
attr repetition 0
attr replication #0
attr resultdir results
attr runnumber 0
attr seedset 0

vector 0 simpleNet.node[0] "numAttemptedPerDest_Total(dest node 2):vector" ETV
vector 1 simpleNet.node[0] "numInQueuePerChannel(node 1):vector" ETV
vector 2 simpleNet.node[0] "balancePerChannel(node 1):vector" ETV
vector 3 simpleNet.node[0] "numProcessedPerChannel(node 0):vector" ETV
vector 4 simpleNet.node[0] "numProcessedPerChannel(node 1):vector" ETV
vector 5 simpleNet.node[0] "numProcessedPerChannel(node 2):vector" ETV
vector 6 simpleNet.node[0] "numSentPerChannel(node 0):vector" ETV
vector 7 simpleNet.node[0] "numSentPerChannel(node 1):vector" ETV
vector 8 simpleNet.node[0] "numSentPerChannel(node 2):vector" ETV
vector 9 simpleNet.node[1] "numAttemptedPerDest_Total(dest node 2):vector" ETV
vector 10 simpleNet.node[1] "numInQueuePerChannel(node 0):vector" ETV
vector 11 simpleNet.node[1] "numInQueuePerChannel(node 2):vector" ETV
vector 12 simpleNet.node[1] "balancePerChannel(node 0):vector" ETV
vector 13 simpleNet.node[1] "balancePerChannel(node 2):vector" ETV
vector 14 simpleNet.node[1] "numProcessedPerChannel(node 0):vector" ETV
vector 15 simpleNet.node[1] "numProcessedPerChannel(node 1):vector" ETV
vector 16 simpleNet.node[1] "numProcessedPerChannel(node 2):vector" ETV
vector 17 simpleNet.node[1] "numSentPerChannel(node 0):vector" ETV
vector 18 simpleNet.node[1] "numSentPerChannel(node 1):vector" ETV
vector 19 simpleNet.node[1] "numSentPerChannel(node 2):vector" ETV
vector 20 simpleNet.node[2] "numAttemptedPerDest_Total(dest node 0):vector" ETV
vector 21 simpleNet.node[2] "numInQueuePerChannel(node 1):vector" ETV
vector 22 simpleNet.node[2] "balancePerChannel(node 1):vector" ETV
vector 23 simpleNet.node[2] "numProcessedPerChannel(node 0):vector" ETV
vector 24 simpleNet.node[2] "numProcessedPerChannel(node 1):vector" ETV
vector 25 simpleNet.node[2] "numProcessedPerChannel(node 2):vector" ETV
vector 26 simpleNet.node[2] "numSentPerChannel(node 0):vector" ETV
vector 27 simpleNet.node[2] "numSentPerChannel(node 1):vector" ETV
vector 28 simpleNet.node[2] "numSentPerChannel(node 2):vector" ETV
vector 29 simpleNet.node[1] completionTime:vector ETV
attr interpolationmode none
attr source completionTime
attr title "completionTime, vector"
vector 30 simpleNet.node[1] "numCompletedPerDest_Total(dest node 2):vector" ETV
vector 31 simpleNet.node[0] completionTime:vector ETV
attr interpolationmode none
attr source completionTime
attr title "completionTime, vector"
vector 32 simpleNet.node[0] "numCompletedPerDest_Total(dest node 2):vector" ETV
vector 33 simpleNet.node[2] completionTime:vector ETV
attr interpolationmode none
attr source completionTime
attr title "completionTime, vector"
vector 34 simpleNet.node[2] "numCompletedPerDest_Total(dest node 0):vector" ETV
0	1	0	1
0	9	0.02	2
0	17	0.04	3
0	27	0.06	4
0	42	0.08	5
0	60	0.1	6
0	80	0.12	7
0	106	0.14	8
0	134	0.16	9
0	163	0.18	10
0	192	0.2	11
0	221	0.22	12
0	250	0.24	13
0	279	0.26	14
0	308	0.28	15
0	337	0.3	16
0	366	0.32	17
0	395	0.34	18
0	424	0.36	19
0	453	0.38	20
0	482	0.4	21
0	511	0.42	22
0	540	0.44	23
0	569	0.46	24
0	598	0.48	25
0	627	0.5	26
0	659	0.52	27
0	688	0.54	28
0	717	0.56	29
0	746	0.58	30
0	775	0.6	31
0	804	0.62	32
0	833	0.64	33
0	862	0.66	34
0	891	0.68	35
0	920	0.7	36
0	949	0.72	37
0	978	0.74	38
0	1007	0.76	39
0	1036	0.78	40
0	1065	0.8	41
0	1094	0.82	42
0	1123	0.84	43
0	1152	0.86	44
0	1181	0.88	45
0	1210	0.9	46
0	1239	0.92	47
0	1268	0.94	48
0	1297	0.96	49
0	1326	0.98	50
0	1355	1	51
0	1387	1.02	52
0	1416	1.04	53
0	1445	1.06	54
0	1474	1.08	55
0	1503	1.1	56
0	1532	1.12	57
0	1561	1.14	58
0	1590	1.16	59
0	1619	1.18	60
0	1648	1.2	61
0	1677	1.22	62
0	1706	1.24	63
0	1735	1.26	64
0	1764	1.28	65
0	1793	1.3	66
0	1822	1.32	67
0	1851	1.34	68
0	1880	1.36	69
0	1909	1.38	70
0	1938	1.4	71
0	1967	1.42	72
0	1996	1.44	73
0	2025	1.46	74
0	2054	1.48	75
0	2083	1.5	76
0	2115	1.52	77
0	2144	1.54	78
0	2173	1.56	79
0	2202	1.58	80
0	2231	1.6	81
0	2260	1.62	82
0	2289	1.64	83
0	2318	1.66	84
0	2347	1.68	85
0	2376	1.7	86
0	2405	1.72	87
0	2434	1.74	88
0	2463	1.76	89
0	2491	1.78	90
0	2518	1.8	91
0	2545	1.82	92
0	2571	1.84	93
0	2595	1.86	94
0	2621	1.88	95
0	2647	1.9	96
0	2671	1.92	97
0	2696	1.94	98
0	2721	1.96	99
0	2741	1.98	100
0	2763	2	101
0	2788	2.02	102
0	2802	2.04	103
0	2822	2.06	104
0	2842	2.08	105
0	2852	2.1	106
0	2870	2.12	107
0	2887	2.14	108
0	2895	2.16	109
0	2911	2.18	110
0	2927	2.2	111
0	2935	2.22	112
0	2950	2.24	113
0	2963	2.26	114
0	2971	2.28	115
0	2984	2.3	116
0	2997	2.32	117
0	3005	2.34	118
0	3016	2.36	119
0	3026	2.38	120
0	3034	2.4	121
0	3045	2.42	122
0	3056	2.44	123
0	3064	2.46	124
0	3074	2.48	125
0	3084	2.5	126
0	3095	2.52	127
0	3105	2.54	128
0	3115	2.56	129
0	3123	2.58	130
0	3132	2.6	131
0	3141	2.62	132
0	3149	2.64	133
0	3158	2.66	134
0	3167	2.68	135
0	3175	2.7	136
0	3183	2.72	137
0	3191	2.74	138
0	3199	2.76	139
0	3207	2.78	140
0	3215	2.8	141
0	3223	2.82	142
0	3231	2.84	143
0	3239	2.86	144
0	3247	2.88	145
0	3255	2.9	146
0	3263	2.92	147
0	3271	2.94	148
0	3279	2.96	149
0	3287	2.98	150
0	3295	3	151
0	3306	3.02	152
0	3314	3.04	153
0	3322	3.06	154
0	3330	3.08	155
0	3338	3.1	156
0	3346	3.12	157
0	3354	3.14	158
0	3362	3.16	159
0	3370	3.18	160
0	3378	3.2	161
0	3386	3.22	162
0	3394	3.24	163
0	3402	3.26	164
0	3410	3.28	165
0	3418	3.3	166
0	3426	3.32	167
0	3434	3.34	168
0	3442	3.36	169
0	3450	3.38	170
0	3458	3.4	171
0	3466	3.42	172
0	3474	3.44	173
0	3482	3.46	174
0	3490	3.48	175
0	3498	3.5	176
0	3509	3.52	177
0	3517	3.54	178
0	3525	3.56	179
0	3533	3.58	180
0	3541	3.6	181
0	3549	3.62	182
0	3557	3.64	183
0	3565	3.66	184
0	3573	3.68	185
0	3581	3.7	186
0	3589	3.72	187
0	3597	3.74	188
0	3605	3.76	189
0	3613	3.78	190
0	3621	3.8	191
0	3629	3.82	192
0	3637	3.84	193
0	3645	3.86	194
0	3653	3.88	195
0	3661	3.9	196
0	3669	3.92	197
0	3677	3.94	198
0	3685	3.96	199
0	3693	3.98	200
0	3701	4	201
0	3711	4.02	202
0	3717	4.04	203
0	3723	4.06	204
0	3729	4.08	205
0	3735	4.1	206
0	3741	4.12	207
0	3747	4.14	208
0	3753	4.16	209
0	3759	4.18	210
0	3765	4.2	211
0	3771	4.22	212
0	3777	4.24	213
0	3783	4.26	214
0	3789	4.28	215
0	3795	4.3	216
0	3801	4.32	217
0	3807	4.34	218
0	3813	4.36	219
0	3819	4.38	220
0	3825	4.4	221
0	3831	4.42	222
0	3837	4.44	223
0	3843	4.46	224
0	3849	4.48	225
0	3855	4.5	226
0	3864	4.52	227
0	3870	4.54	228
0	3876	4.56	229
0	3882	4.58	230
0	3888	4.6	231
0	3894	4.62	232
0	3900	4.64	233
0	3906	4.66	234
0	3912	4.68	235
0	3918	4.7	236
0	3924	4.72	237
0	3930	4.74	238
0	3936	4.76	239
0	3942	4.78	240
0	3948	4.8	241
0	3954	4.82	242
0	3960	4.84	243
0	3966	4.86	244
0	3972	4.88	245
0	3978	4.9	246
0	3984	4.92	247
0	3990	4.94	248
0	3996	4.96	249
0	4002	4.98	250
0	4008	5	251
0	4017	5.02	252
0	4023	5.04	253
0	4029	5.06	254
0	4035	5.08	255
0	4041	5.1	256
0	4047	5.12	257
0	4053	5.14	258
0	4059	5.16	259
0	4065	5.18	260
0	4071	5.2	261
0	4077	5.22	262
0	4083	5.24	263
0	4089	5.26	264
0	4095	5.28	265
0	4101	5.3	266
0	4107	5.32	267
0	4113	5.34	268
0	4119	5.36	269
0	4125	5.38	270
0	4131	5.4	271
0	4137	5.42	272
0	4143	5.44	273
0	4149	5.46	274
0	4155	5.48	275
0	4161	5.5	276
0	4170	5.52	277
0	4176	5.54	278
0	4182	5.56	279
0	4188	5.58	280
0	4194	5.6	281
0	4200	5.62	282
0	4206	5.64	283
0	4212	5.66	284
0	4218	5.68	285
0	4224	5.7	286
0	4230	5.72	287
0	4236	5.74	288
0	4242	5.76	289
0	4248	5.78	290
0	4254	5.8	291
0	4260	5.82	292
0	4266	5.84	293
0	4272	5.86	294
0	4278	5.88	295
0	4284	5.9	296
0	4290	5.92	297
0	4296	5.94	298
0	4302	5.96	299
0	4308	5.98	300
0	4313	6	301
0	4321	6.02	302
0	4326	6.04	303
0	4331	6.06	304
0	4336	6.08	305
0	4341	6.1	306
0	4346	6.12	307
0	4351	6.14	308
0	4356	6.16	309
0	4361	6.18	310
0	4366	6.2	311
0	4371	6.22	312
0	4376	6.24	313
0	4381	6.26	314
0	4386	6.28	315
0	4391	6.3	316
0	4396	6.32	317
0	4401	6.34	318
0	4406	6.36	319
0	4411	6.38	320
0	4416	6.4	321
0	4421	6.42	322
0	4426	6.44	323
0	4431	6.46	324
0	4436	6.48	325
0	4441	6.5	326
0	4449	6.52	327
0	4454	6.54	328
0	4459	6.56	329
0	4464	6.58	330
0	4469	6.6	331
0	4474	6.62	332
0	4479	6.64	333
0	4484	6.66	334
0	4489	6.68	335
0	4494	6.7	336
0	4499	6.72	337
0	4504	6.74	338
0	4509	6.76	339
0	4514	6.78	340
0	4519	6.8	341
0	4524	6.82	342
0	4529	6.84	343
0	4534	6.86	344
0	4539	6.88	345
0	4544	6.9	346
0	4549	6.92	347
0	4554	6.94	348
0	4559	6.96	349
0	4564	6.98	350
0	4569	7	351
0	4577	7.02	352
0	4582	7.04	353
0	4587	7.06	354
0	4592	7.08	355
0	4597	7.1	356
0	4602	7.12	357
0	4607	7.14	358
0	4612	7.16	359
0	4617	7.18	360
0	4622	7.2	361
0	4627	7.22	362
0	4632	7.24	363
0	4637	7.26	364
0	4642	7.28	365
0	4647	7.3	366
0	4652	7.32	367
0	4657	7.34	368
0	4662	7.36	369
0	4667	7.38	370
0	4672	7.4	371
0	4677	7.42	372
0	4682	7.44	373
0	4687	7.46	374
0	4692	7.48	375
0	4697	7.5	376
0	4705	7.52	377
0	4710	7.54	378
0	4715	7.56	379
0	4720	7.58	380
0	4725	7.6	381
0	4730	7.62	382
0	4735	7.64	383
0	4740	7.66	384
0	4745	7.68	385
0	4750	7.7	386
0	4755	7.72	387
0	4760	7.74	388
0	4765	7.76	389
0	4770	7.78	390
0	4775	7.8	391
0	4780	7.82	392
0	4785	7.84	393
0	4790	7.86	394
0	4795	7.88	395
0	4800	7.9	396
0	4805	7.92	397
0	4810	7.94	398
0	4815	7.96	399
0	4820	7.98	400
0	4825	8	401
0	4833	8.02	402
0	4838	8.04	403
0	4843	8.06	404
0	4848	8.08	405
0	4853	8.1	406
0	4858	8.12	407
0	4863	8.14	408
0	4868	8.16	409
0	4873	8.18	410
0	4878	8.2	411
0	4883	8.22	412
0	4888	8.24	413
0	4893	8.26	414
0	4898	8.28	415
0	4903	8.3	416
0	4908	8.32	417
0	4913	8.34	418
0	4918	8.36	419
0	4923	8.38	420
0	4928	8.4	421
0	4933	8.42	422
0	4938	8.44	423
0	4943	8.46	424
0	4948	8.48	425
0	4953	8.5	426
0	4961	8.52	427
0	4966	8.54	428
0	4971	8.56	429
0	4976	8.58	430
0	4981	8.6	431
0	4986	8.62	432
0	4991	8.64	433
0	4996	8.66	434
0	5001	8.68	435
0	5006	8.7	436
0	5011	8.72	437
0	5016	8.74	438
0	5021	8.76	439
0	5026	8.78	440
0	5031	8.8	441
0	5036	8.82	442
0	5041	8.84	443
0	5046	8.86	444
0	5051	8.88	445
0	5056	8.9	446
0	5061	8.92	447
0	5066	8.94	448
0	5071	8.96	449
0	5076	8.98	450
0	5081	9	451
0	5089	9.02	452
0	5094	9.04	453
0	5099	9.06	454
0	5104	9.08	455
0	5109	9.1	456
0	5114	9.12	457
0	5119	9.14	458
0	5124	9.16	459
0	5129	9.18	460
0	5134	9.2	461
0	5139	9.22	462
0	5144	9.24	463
0	5149	9.26	464
0	5154	9.28	465
0	5159	9.3	466
0	5164	9.32	467
0	5169	9.34	468
0	5174	9.36	469
0	5179	9.38	470
0	5184	9.4	471
0	5189	9.42	472
0	5194	9.44	473
0	5199	9.46	474
0	5204	9.48	475
0	5209	9.5	476
0	5217	9.52	477
0	5222	9.54	478
0	5227	9.56	479
0	5232	9.58	480
0	5237	9.6	481
0	5242	9.62	482
0	5247	9.64	483
0	5252	9.66	484
0	5257	9.68	485
0	5262	9.7	486
0	5267	9.72	487
0	5272	9.74	488
0	5277	9.76	489
0	5282	9.78	490
0	5287	9.8	491
0	5292	9.82	492
0	5297	9.84	493
0	5302	9.86	494
0	5307	9.88	495
0	5312	9.9	496
0	5317	9.92	497
0	5322	9.94	498
0	5327	9.96	499
0	5332	9.98	500
0	5337	10	501
0	5345	10.02	502
0	5350	10.04	503
0	5355	10.06	504
0	5360	10.08	505
0	5365	10.1	506
0	5370	10.12	507
0	5375	10.14	508
0	5380	10.16	509
0	5385	10.18	510
0	5390	10.2	511
0	5395	10.22	512
0	5400	10.24	513
0	5405	10.26	514
0	5410	10.28	515
0	5415	10.3	516
0	5420	10.32	517
0	5425	10.34	518
0	5430	10.36	519
0	5435	10.38	520
0	5440	10.4	521
0	5445	10.42	522
0	5450	10.44	523
0	5455	10.46	524
0	5460	10.48	525
0	5465	10.5	526
0	5473	10.52	527
0	5478	10.54	528
0	5483	10.56	529
0	5488	10.58	530
0	5493	10.6	531
0	5498	10.62	532
0	5503	10.64	533
0	5508	10.66	534
0	5513	10.68	535
0	5518	10.7	536
0	5523	10.72	537
0	5528	10.74	538
0	5533	10.76	539
0	5538	10.78	540
0	5543	10.8	541
0	5548	10.82	542
0	5553	10.84	543
0	5558	10.86	544
0	5563	10.88	545
0	5568	10.9	546
0	5573	10.92	547
0	5578	10.94	548
0	5583	10.96	549
0	5588	10.98	550
0	5593	11	551
0	5601	11.02	552
0	5606	11.04	553
0	5611	11.06	554
0	5616	11.08	555
0	5621	11.1	556
0	5626	11.12	557
0	5631	11.14	558
0	5636	11.16	559
0	5641	11.18	560
0	5646	11.2	561
0	5651	11.22	562
0	5656	11.24	563
0	5661	11.26	564
0	5666	11.28	565
0	5671	11.3	566
0	5676	11.32	567
0	5681	11.34	568
0	5686	11.36	569
0	5691	11.38	570
0	5696	11.4	571
0	5701	11.42	572
0	5706	11.44	573
0	5711	11.46	574
0	5716	11.48	575
0	5721	11.5	576
0	5729	11.52	577
0	5734	11.54	578
0	5739	11.56	579
0	5744	11.58	580
0	5749	11.6	581
0	5754	11.62	582
0	5759	11.64	583
0	5764	11.66	584
0	5769	11.68	585
0	5774	11.7	586
0	5779	11.72	587
0	5784	11.74	588
0	5789	11.76	589
0	5794	11.78	590
0	5799	11.8	591
0	5804	11.82	592
0	5809	11.84	593
0	5814	11.86	594
0	5819	11.88	595
0	5824	11.9	596
0	5829	11.92	597
0	5834	11.94	598
0	5839	11.96	599
0	5844	11.98	600
0	5849	12	601
0	5857	12.02	602
0	5862	12.04	603
0	5867	12.06	604
0	5872	12.08	605
0	5877	12.1	606
0	5882	12.12	607
0	5887	12.14	608
0	5892	12.16	609
0	5897	12.18	610
0	5902	12.2	611
0	5907	12.22	612
0	5912	12.24	613
0	5917	12.26	614
0	5922	12.28	615
0	5927	12.3	616
0	5932	12.32	617
0	5937	12.34	618
0	5942	12.36	619
0	5947	12.38	620
0	5952	12.4	621
0	5957	12.42	622
0	5962	12.44	623
0	5967	12.46	624
0	5972	12.48	625
0	5977	12.5	626
0	5985	12.52	627
0	5990	12.54	628
0	5995	12.56	629
0	6000	12.58	630
0	6005	12.6	631
0	6010	12.62	632
0	6015	12.64	633
0	6020	12.66	634
0	6025	12.68	635
0	6030	12.7	636
0	6035	12.72	637
0	6040	12.74	638
0	6045	12.76	639
0	6050	12.78	640
0	6055	12.8	641
0	6060	12.82	642
0	6065	12.84	643
0	6070	12.86	644
0	6075	12.88	645
0	6080	12.9	646
0	6085	12.92	647
0	6090	12.94	648
0	6095	12.96	649
0	6100	12.98	650
0	6105	13	651
0	6113	13.02	652
0	6118	13.04	653
0	6123	13.06	654
0	6128	13.08	655
0	6133	13.1	656
0	6138	13.12	657
0	6143	13.14	658
0	6148	13.16	659
0	6153	13.18	660
0	6158	13.2	661
0	6163	13.22	662
0	6168	13.24	663
0	6173	13.26	664
0	6178	13.28	665
0	6183	13.3	666
0	6188	13.32	667
0	6193	13.34	668
0	6198	13.36	669
0	6203	13.38	670
0	6208	13.4	671
0	6213	13.42	672
0	6218	13.44	673
0	6223	13.46	674
0	6228	13.48	675
0	6233	13.5	676
0	6241	13.52	677
0	6246	13.54	678
0	6251	13.56	679
0	6256	13.58	680
0	6261	13.6	681
0	6266	13.62	682
0	6271	13.64	683
0	6276	13.66	684
0	6281	13.68	685
0	6286	13.7	686
0	6291	13.72	687
0	6296	13.74	688
0	6301	13.76	689
0	6306	13.78	690
0	6311	13.8	691
0	6316	13.82	692
0	6321	13.84	693
0	6326	13.86	694
0	6331	13.88	695
0	6336	13.9	696
0	6341	13.92	697
0	6346	13.94	698
0	6351	13.96	699
0	6356	13.98	700
0	6361	14	701
0	6369	14.02	702
0	6374	14.04	703
0	6379	14.06	704
0	6384	14.08	705
0	6389	14.1	706
0	6394	14.12	707
0	6399	14.14	708
0	6404	14.16	709
0	6409	14.18	710
0	6414	14.2	711
0	6419	14.22	712
0	6424	14.24	713
0	6429	14.26	714
0	6434	14.28	715
0	6439	14.3	716
0	6444	14.32	717
0	6449	14.34	718
0	6454	14.36	719
0	6459	14.38	720
0	6464	14.4	721
0	6469	14.42	722
0	6474	14.44	723
0	6479	14.46	724
0	6484	14.48	725
0	6489	14.5	726
0	6497	14.52	727
0	6502	14.54	728
0	6507	14.56	729
0	6512	14.58	730
0	6517	14.6	731
0	6522	14.62	732
0	6527	14.64	733
0	6532	14.66	734
0	6537	14.68	735
0	6542	14.7	736
0	6547	14.72	737
0	6552	14.74	738
0	6557	14.76	739
0	6562	14.78	740
0	6567	14.8	741
0	6572	14.82	742
0	6577	14.84	743
0	6582	14.86	744
0	6587	14.88	745
0	6592	14.9	746
0	6597	14.92	747
0	6602	14.94	748
0	6607	14.96	749
0	6612	14.98	750
0	6617	15	751
0	6625	15.02	752
0	6630	15.04	753
0	6635	15.06	754
0	6640	15.08	755
0	6645	15.1	756
0	6650	15.12	757
0	6655	15.14	758
0	6660	15.16	759
0	6665	15.18	760
0	6670	15.2	761
0	6675	15.22	762
0	6680	15.24	763
0	6685	15.26	764
0	6690	15.28	765
0	6695	15.3	766
0	6700	15.32	767
0	6705	15.34	768
0	6710	15.36	769
0	6715	15.38	770
0	6720	15.4	771
0	6725	15.42	772
0	6730	15.44	773
0	6735	15.46	774
0	6740	15.48	775
0	6745	15.5	776
0	6753	15.52	777
0	6758	15.54	778
0	6763	15.56	779
0	6768	15.58	780
0	6773	15.6	781
0	6778	15.62	782
0	6783	15.64	783
0	6788	15.66	784
0	6793	15.68	785
0	6798	15.7	786
0	6803	15.72	787
0	6808	15.74	788
0	6813	15.76	789
0	6818	15.78	790
0	6823	15.8	791
0	6828	15.82	792
0	6833	15.84	793
0	6838	15.86	794
0	6843	15.88	795
0	6848	15.9	796
0	6853	15.92	797
0	6858	15.94	798
0	6863	15.96	799
0	6868	15.98	800
0	6873	16	801
0	6881	16.02	802
0	6886	16.04	803
0	6891	16.06	804
0	6896	16.08	805
0	6901	16.1	806
0	6906	16.12	807
0	6911	16.14	808
0	6916	16.16	809
0	6921	16.18	810
0	6926	16.2	811
0	6931	16.22	812
0	6936	16.24	813
0	6941	16.26	814
0	6946	16.28	815
0	6951	16.3	816
0	6956	16.32	817
0	6961	16.34	818
0	6966	16.36	819
0	6971	16.38	820
0	6976	16.4	821
0	6981	16.42	822
0	6986	16.44	823
0	6991	16.46	824
0	6996	16.48	825
0	7001	16.5	826
0	7009	16.52	827
0	7014	16.54	828
0	7019	16.56	829
0	7024	16.58	830
0	7029	16.6	831
0	7034	16.62	832
0	7039	16.64	833
0	7044	16.66	834
0	7049	16.68	835
0	7054	16.7	836
0	7059	16.72	837
0	7064	16.74	838
0	7069	16.76	839
0	7074	16.78	840
0	7079	16.8	841
0	7084	16.82	842
0	7089	16.84	843
0	7094	16.86	844
0	7099	16.88	845
0	7104	16.9	846
0	7109	16.92	847
0	7114	16.94	848
0	7119	16.96	849
0	7124	16.98	850
0	7129	17	851
0	7137	17.02	852
0	7142	17.04	853
0	7147	17.06	854
0	7152	17.08	855
0	7157	17.1	856
0	7162	17.12	857
0	7167	17.14	858
0	7172	17.16	859
0	7177	17.18	860
0	7182	17.2	861
0	7187	17.22	862
0	7192	17.24	863
0	7197	17.26	864
0	7202	17.28	865
0	7207	17.3	866
0	7212	17.32	867
0	7217	17.34	868
0	7222	17.36	869
0	7227	17.38	870
0	7232	17.4	871
0	7237	17.42	872
0	7242	17.44	873
0	7247	17.46	874
0	7252	17.48	875
0	7257	17.5	876
0	7265	17.52	877
0	7270	17.54	878
0	7275	17.56	879
0	7280	17.58	880
0	7285	17.6	881
0	7290	17.62	882
0	7295	17.64	883
0	7300	17.66	884
0	7305	17.68	885
0	7310	17.7	886
0	7315	17.72	887
0	7320	17.74	888
0	7325	17.76	889
0	7330	17.78	890
0	7335	17.8	891
0	7340	17.82	892
0	7345	17.84	893
0	7350	17.86	894
0	7355	17.88	895
0	7360	17.9	896
0	7365	17.92	897
0	7370	17.94	898
0	7375	17.96	899
0	7380	17.98	900
0	7385	18	901
0	7393	18.02	902
0	7398	18.04	903
0	7403	18.06	904
0	7408	18.08	905
0	7413	18.1	906
0	7418	18.12	907
0	7423	18.14	908
0	7428	18.16	909
0	7433	18.18	910
0	7438	18.2	911
0	7443	18.22	912
0	7448	18.24	913
0	7453	18.26	914
0	7458	18.28	915
0	7463	18.3	916
0	7468	18.32	917
0	7473	18.34	918
0	7478	18.36	919
0	7483	18.38	920
0	7488	18.4	921
0	7493	18.42	922
0	7498	18.44	923
0	7503	18.46	924
0	7508	18.48	925
0	7513	18.5	926
0	7521	18.52	927
0	7526	18.54	928
0	7531	18.56	929
0	7536	18.58	930
0	7541	18.6	931
0	7546	18.62	932
0	7551	18.64	933
0	7556	18.66	934
0	7561	18.68	935
0	7566	18.7	936
0	7571	18.72	937
0	7576	18.74	938
0	7581	18.76	939
0	7586	18.78	940
0	7591	18.8	941
0	7596	18.82	942
0	7601	18.84	943
0	7606	18.86	944
0	7611	18.88	945
0	7616	18.9	946
0	7621	18.92	947
0	7626	18.94	948
0	7631	18.96	949
0	7636	18.98	950
0	7641	19	951
0	7649	19.02	952
0	7654	19.04	953
0	7659	19.06	954
0	7664	19.08	955
0	7669	19.1	956
0	7674	19.12	957
0	7679	19.14	958
0	7684	19.16	959
0	7689	19.18	960
0	7694	19.2	961
0	7699	19.22	962
0	7704	19.24	963
0	7709	19.26	964
0	7714	19.28	965
0	7719	19.3	966
0	7724	19.32	967
0	7729	19.34	968
0	7734	19.36	969
0	7739	19.38	970
0	7744	19.4	971
0	7749	19.42	972
0	7754	19.44	973
0	7759	19.46	974
0	7764	19.48	975
0	7769	19.5	976
0	7777	19.52	977
0	7782	19.54	978
0	7787	19.56	979
0	7792	19.58	980
0	7797	19.6	981
0	7802	19.62	982
0	7807	19.64	983
0	7812	19.66	984
0	7817	19.68	985
0	7822	19.7	986
0	7827	19.72	987
0	7832	19.74	988
0	7837	19.76	989
0	7842	19.78	990
0	7847	19.8	991
0	7852	19.82	992
0	7857	19.84	993
0	7862	19.86	994
0	7867	19.88	995
0	7872	19.9	996
0	7877	19.92	997
0	7882	19.94	998
0	7887	19.96	999
0	7892	19.98	1000
0	7897	20	1001
0	7905	20.02	1002
0	7910	20.04	1003
0	7915	20.06	1004
0	7920	20.08	1005
0	7925	20.1	1006
0	7930	20.12	1007
0	7935	20.14	1008
0	7940	20.16	1009
0	7945	20.18	1010
0	7950	20.2	1011
0	7955	20.22	1012
0	7960	20.24	1013
0	7965	20.26	1014
0	7970	20.28	1015
0	7975	20.3	1016
0	7980	20.32	1017
0	7985	20.34	1018
0	7990	20.36	1019
0	7995	20.38	1020
0	8000	20.4	1021
0	8005	20.42	1022
0	8010	20.44	1023
0	8015	20.46	1024
0	8020	20.48	1025
0	8025	20.5	1026
0	8033	20.52	1027
0	8038	20.54	1028
0	8043	20.56	1029
0	8048	20.58	1030
0	8053	20.6	1031
0	8058	20.62	1032
0	8063	20.64	1033
0	8068	20.66	1034
0	8073	20.68	1035
0	8078	20.7	1036
0	8083	20.72	1037
0	8088	20.74	1038
0	8093	20.76	1039
0	8098	20.78	1040
0	8103	20.8	1041
0	8108	20.82	1042
0	8113	20.84	1043
0	8118	20.86	1044
0	8123	20.88	1045
0	8128	20.9	1046
0	8133	20.92	1047
0	8138	20.94	1048
0	8143	20.96	1049
0	8148	20.98	1050
0	8153	21	1051
0	8161	21.02	1052
0	8166	21.04	1053
0	8171	21.06	1054
0	8176	21.08	1055
0	8181	21.1	1056
0	8186	21.12	1057
0	8191	21.14	1058
0	8196	21.16	1059
0	8201	21.18	1060
0	8206	21.2	1061
0	8211	21.22	1062
0	8216	21.24	1063
0	8221	21.26	1064
0	8226	21.28	1065
0	8231	21.3	1066
0	8236	21.32	1067
0	8241	21.34	1068
0	8246	21.36	1069
0	8251	21.38	1070
0	8256	21.4	1071
0	8261	21.42	1072
0	8266	21.44	1073
0	8271	21.46	1074
0	8276	21.48	1075
0	8281	21.5	1076
0	8289	21.52	1077
0	8294	21.54	1078
0	8299	21.56	1079
0	8304	21.58	1080
0	8309	21.6	1081
0	8314	21.62	1082
0	8319	21.64	1083
0	8324	21.66	1084
0	8329	21.68	1085
0	8334	21.7	1086
0	8339	21.72	1087
0	8344	21.74	1088
0	8349	21.76	1089
0	8354	21.78	1090
0	8359	21.8	1091
0	8364	21.82	1092
0	8369	21.84	1093
0	8374	21.86	1094
0	8379	21.88	1095
0	8384	21.9	1096
0	8389	21.92	1097
0	8394	21.94	1098
0	8399	21.96	1099
0	8404	21.98	1100
0	8409	22	1101
0	8417	22.02	1102
0	8422	22.04	1103
0	8427	22.06	1104
0	8432	22.08	1105
0	8437	22.1	1106
0	8442	22.12	1107
0	8447	22.14	1108
0	8452	22.16	1109
0	8457	22.18	1110
0	8462	22.2	1111
0	8467	22.22	1112
0	8472	22.24	1113
0	8477	22.26	1114
0	8482	22.28	1115
0	8487	22.3	1116
0	8492	22.32	1117
0	8497	22.34	1118
0	8502	22.36	1119
0	8507	22.38	1120
0	8512	22.4	1121
0	8517	22.42	1122
0	8522	22.44	1123
0	8527	22.46	1124
0	8532	22.48	1125
0	8537	22.5	1126
0	8545	22.52	1127
0	8550	22.54	1128
0	8555	22.56	1129
0	8560	22.58	1130
0	8565	22.6	1131
0	8570	22.62	1132
0	8575	22.64	1133
0	8580	22.66	1134
0	8585	22.68	1135
0	8590	22.7	1136
0	8595	22.72	1137
0	8600	22.74	1138
0	8605	22.76	1139
0	8610	22.78	1140
0	8615	22.8	1141
0	8620	22.82	1142
0	8625	22.84	1143
0	8630	22.86	1144
0	8635	22.88	1145
0	8640	22.9	1146
0	8645	22.92	1147
0	8650	22.94	1148
0	8655	22.96	1149
0	8660	22.98	1150
0	8665	23	1151
0	8673	23.02	1152
0	8678	23.04	1153
0	8683	23.06	1154
0	8688	23.08	1155
0	8693	23.1	1156
0	8698	23.12	1157
0	8703	23.14	1158
0	8708	23.16	1159
0	8713	23.18	1160
0	8718	23.2	1161
0	8723	23.22	1162
0	8728	23.24	1163
0	8733	23.26	1164
0	8738	23.28	1165
0	8743	23.3	1166
0	8748	23.32	1167
0	8753	23.34	1168
0	8758	23.36	1169
0	8763	23.38	1170
0	8768	23.4	1171
0	8773	23.42	1172
0	8778	23.44	1173
0	8783	23.46	1174
0	8788	23.48	1175
0	8793	23.5	1176
0	8801	23.52	1177
0	8806	23.54	1178
0	8811	23.56	1179
0	8816	23.58	1180
0	8821	23.6	1181
0	8826	23.62	1182
0	8831	23.64	1183
0	8836	23.66	1184
0	8841	23.68	1185
0	8846	23.7	1186
0	8851	23.72	1187
0	8856	23.74	1188
0	8861	23.76	1189
0	8866	23.78	1190
0	8871	23.8	1191
0	8876	23.82	1192
0	8881	23.84	1193
0	8886	23.86	1194
0	8891	23.88	1195
0	8896	23.9	1196
0	8901	23.92	1197
0	8906	23.94	1198
0	8911	23.96	1199
0	8916	23.98	1200
0	8921	24	1201
0	8929	24.02	1202
0	8934	24.04	1203
0	8939	24.06	1204
0	8944	24.08	1205
0	8949	24.1	1206
0	8954	24.12	1207
0	8959	24.14	1208
0	8964	24.16	1209
0	8969	24.18	1210
0	8974	24.2	1211
0	8979	24.22	1212
0	8984	24.24	1213
0	8989	24.26	1214
0	8994	24.28	1215
0	8999	24.3	1216
0	9004	24.32	1217
0	9009	24.34	1218
0	9014	24.36	1219
0	9019	24.38	1220
0	9024	24.4	1221
0	9029	24.42	1222
0	9034	24.44	1223
0	9039	24.46	1224
0	9044	24.48	1225
0	9049	24.5	1226
0	9057	24.52	1227
0	9062	24.54	1228
0	9067	24.56	1229
0	9072	24.58	1230
0	9077	24.6	1231
0	9082	24.62	1232
0	9087	24.64	1233
0	9092	24.66	1234
0	9097	24.68	1235
0	9102	24.7	1236
0	9107	24.72	1237
0	9112	24.74	1238
0	9117	24.76	1239
0	9122	24.78	1240
0	9127	24.8	1241
0	9132	24.82	1242
0	9137	24.84	1243
0	9142	24.86	1244
0	9147	24.88	1245
0	9152	24.9	1246
0	9157	24.92	1247
0	9162	24.94	1248
0	9167	24.96	1249
0	9172	24.98	1250
0	9177	25	1251
0	9185	25.02	1252
0	9190	25.04	1253
0	9195	25.06	1254
0	9200	25.08	1255
0	9205	25.1	1256
0	9210	25.12	1257
0	9215	25.14	1258
0	9220	25.16	1259
0	9225	25.18	1260
0	9230	25.2	1261
0	9235	25.22	1262
0	9240	25.24	1263
0	9245	25.26	1264
0	9250	25.28	1265
0	9255	25.3	1266
0	9260	25.32	1267
0	9265	25.34	1268
0	9270	25.36	1269
0	9275	25.38	1270
0	9280	25.4	1271
0	9285	25.42	1272
0	9290	25.44	1273
0	9295	25.46	1274
0	9300	25.48	1275
0	9305	25.5	1276
0	9313	25.52	1277
0	9318	25.54	1278
0	9323	25.56	1279
0	9328	25.58	1280
0	9333	25.6	1281
0	9338	25.62	1282
0	9343	25.64	1283
0	9348	25.66	1284
0	9353	25.68	1285
0	9358	25.7	1286
0	9363	25.72	1287
0	9368	25.74	1288
0	9373	25.76	1289
0	9378	25.78	1290
0	9383	25.8	1291
0	9388	25.82	1292
0	9393	25.84	1293
0	9398	25.86	1294
0	9403	25.88	1295
0	9408	25.9	1296
0	9413	25.92	1297
0	9418	25.94	1298
0	9423	25.96	1299
0	9428	25.98	1300
0	9433	26	1301
0	9441	26.02	1302
0	9446	26.04	1303
0	9451	26.06	1304
0	9456	26.08	1305
0	9461	26.1	1306
0	9466	26.12	1307
0	9471	26.14	1308
0	9476	26.16	1309
0	9481	26.18	1310
0	9486	26.2	1311
0	9491	26.22	1312
0	9496	26.24	1313
0	9501	26.26	1314
0	9506	26.28	1315
0	9511	26.3	1316
0	9516	26.32	1317
0	9521	26.34	1318
0	9526	26.36	1319
0	9531	26.38	1320
0	9536	26.4	1321
0	9541	26.42	1322
0	9546	26.44	1323
0	9551	26.46	1324
0	9556	26.48	1325
0	9561	26.5	1326
0	9569	26.52	1327
0	9574	26.54	1328
0	9579	26.56	1329
0	9584	26.58	1330
0	9589	26.6	1331
0	9594	26.62	1332
0	9599	26.64	1333
0	9604	26.66	1334
0	9609	26.68	1335
0	9614	26.7	1336
0	9619	26.72	1337
0	9624	26.74	1338
0	9629	26.76	1339
0	9634	26.78	1340
0	9639	26.8	1341
0	9644	26.82	1342
0	9649	26.84	1343
0	9654	26.86	1344
0	9659	26.88	1345
0	9664	26.9	1346
0	9669	26.92	1347
0	9674	26.94	1348
0	9679	26.96	1349
0	9684	26.98	1350
0	9689	27	1351
0	9697	27.02	1352
0	9702	27.04	1353
0	9707	27.06	1354
0	9712	27.08	1355
0	9717	27.1	1356
0	9722	27.12	1357
0	9727	27.14	1358
0	9732	27.16	1359
0	9737	27.18	1360
0	9742	27.2	1361
0	9747	27.22	1362
0	9752	27.24	1363
0	9757	27.26	1364
0	9762	27.28	1365
0	9767	27.3	1366
0	9772	27.32	1367
0	9777	27.34	1368
0	9782	27.36	1369
0	9787	27.38	1370
0	9792	27.4	1371
0	9797	27.42	1372
0	9802	27.44	1373
0	9807	27.46	1374
0	9812	27.48	1375
0	9817	27.5	1376
0	9825	27.52	1377
0	9830	27.54	1378
0	9835	27.56	1379
0	9840	27.58	1380
0	9845	27.6	1381
0	9850	27.62	1382
0	9855	27.64	1383
0	9860	27.66	1384
0	9865	27.68	1385
0	9870	27.7	1386
0	9875	27.72	1387
0	9880	27.74	1388
0	9885	27.76	1389
0	9890	27.78	1390
0	9895	27.8	1391
0	9900	27.82	1392
0	9905	27.84	1393
0	9910	27.86	1394
0	9915	27.88	1395
0	9920	27.9	1396
0	9925	27.92	1397
0	9930	27.94	1398
0	9935	27.96	1399
0	9940	27.98	1400
0	9945	28	1401
0	9953	28.02	1402
0	9958	28.04	1403
0	9963	28.06	1404
0	9968	28.08	1405
0	9973	28.1	1406
0	9978	28.12	1407
0	9983	28.14	1408
0	9988	28.16	1409
0	9993	28.18	1410
0	9998	28.2	1411
0	10003	28.22	1412
0	10008	28.24	1413
0	10013	28.26	1414
0	10018	28.28	1415
0	10023	28.3	1416
0	10028	28.32	1417
0	10033	28.34	1418
0	10038	28.36	1419
0	10043	28.38	1420
0	10048	28.4	1421
0	10053	28.42	1422
0	10058	28.44	1423
0	10063	28.46	1424
0	10068	28.48	1425
0	10073	28.5	1426
0	10081	28.52	1427
0	10086	28.54	1428
0	10091	28.56	1429
0	10096	28.58	1430
0	10101	28.6	1431
0	10106	28.62	1432
0	10111	28.64	1433
0	10116	28.66	1434
0	10121	28.68	1435
0	10126	28.7	1436
0	10131	28.72	1437
0	10136	28.74	1438
0	10141	28.76	1439
0	10146	28.78	1440
0	10151	28.8	1441
0	10156	28.82	1442
0	10161	28.84	1443
0	10166	28.86	1444
0	10171	28.88	1445
0	10176	28.9	1446
0	10181	28.92	1447
0	10186	28.94	1448
0	10191	28.96	1449
0	10196	28.98	1450
0	10201	29	1451
0	10209	29.02	1452
0	10214	29.04	1453
0	10219	29.06	1454
0	10224	29.08	1455
0	10229	29.1	1456
0	10234	29.12	1457
0	10239	29.14	1458
0	10244	29.16	1459
0	10249	29.18	1460
0	10254	29.2	1461
0	10259	29.22	1462
0	10264	29.24	1463
0	10269	29.26	1464
0	10274	29.28	1465
0	10279	29.3	1466
0	10284	29.32	1467
0	10289	29.34	1468
0	10294	29.36	1469
0	10299	29.38	1470
0	10304	29.4	1471
0	10309	29.42	1472
0	10314	29.44	1473
0	10319	29.46	1474
0	10324	29.48	1475
0	10329	29.5	1476
0	10337	29.52	1477
0	10342	29.54	1478
0	10347	29.56	1479
0	10352	29.58	1480
0	10357	29.6	1481
0	10362	29.62	1482
0	10367	29.64	1483
0	10372	29.66	1484
0	10377	29.68	1485
0	10382	29.7	1486
0	10387	29.72	1487
0	10392	29.74	1488
0	10397	29.76	1489
0	10402	29.78	1490
0	10407	29.8	1491
0	10412	29.82	1492
0	10417	29.84	1493
0	10422	29.86	1494
0	10427	29.88	1495
0	10432	29.9	1496
0	10437	29.92	1497
0	10442	29.94	1498
0	10447	29.96	1499
0	10452	29.98	1500
1	2	0	0
1	630	0.5	0
1	1358	1	0
1	2086	1.5	0
1	2766	2	0
1	3087	2.5	0
1	3298	3	0
1	3501	3.5	0
1	3704	4	0
1	3858	4.5	0
1	4011	5	0
1	4164	5.5	0
1	4316	6	3
1	4444	6.5	28
1	4572	7	53
1	4700	7.5	78
1	4828	8	103
1	4956	8.5	128
1	5084	9	153
1	5212	9.5	178
1	5340	10	203
1	5468	10.5	228
1	5596	11	253
1	5724	11.5	278
1	5852	12	303
1	5980	12.5	328
1	6108	13	353
1	6236	13.5	378
1	6364	14	403
1	6492	14.5	428
1	6620	15	453
1	6748	15.5	478
1	6876	16	503
1	7004	16.5	528
1	7132	17	553
1	7260	17.5	578
1	7388	18	603
1	7516	18.5	628
1	7644	19	653
1	7772	19.5	678
1	7900	20	703
1	8028	20.5	728
1	8156	21	753
1	8284	21.5	778
1	8412	22	803
1	8540	22.5	828
1	8668	23	853
1	8796	23.5	878
1	8924	24	903
1	9052	24.5	928
1	9180	25	953
1	9308	25.5	978
1	9436	26	1003
1	9564	26.5	1028
1	9692	27	1053
1	9820	27.5	1078
1	9948	28	1103
1	10076	28.5	1128
1	10204	29	1153
1	10332	29.5	1178
1	10457	30	1202
1	10460	30.5	1202
2	2	0	99
2	630	0.5	112
2	1358	1	137
2	2086	1.5	162
2	2766	2	186
2	3087	2.5	171
2	3298	3	147
2	3501	3.5	122
2	3704	4	97
2	3858	4.5	72
2	4011	5	47
2	4164	5.5	22
2	4316	6	0
2	4444	6.5	0
2	4572	7	0
2	4700	7.5	0
2	4828	8	0
2	4956	8.5	0
2	5084	9	0
2	5212	9.5	0
2	5340	10	0
2	5468	10.5	0
2	5596	11	0
2	5724	11.5	0
2	5852	12	0
2	5980	12.5	0
2	6108	13	0
2	6236	13.5	0
2	6364	14	0
2	6492	14.5	0
2	6620	15	0
2	6748	15.5	0
2	6876	16	0
2	7004	16.5	0
2	7132	17	0
2	7260	17.5	0
2	7388	18	0
2	7516	18.5	0
2	7644	19	0
2	7772	19.5	0
2	7900	20	0
2	8028	20.5	0
2	8156	21	0
2	8284	21.5	0
2	8412	22	0
2	8540	22.5	0
2	8668	23	0
2	8796	23.5	0
2	8924	24	0
2	9052	24.5	0
2	9180	25	0
2	9308	25.5	0
2	9436	26	0
2	9564	26.5	0
2	9692	27	0
2	9820	27.5	0
2	9948	28	0
2	10076	28.5	0
2	10204	29	0
2	10332	29.5	0
2	10457	30	0
2	10460	30.5	0
3	2	0	0
3	630	0.5	0
3	1358	1	0
3	2086	1.5	0
3	2766	2	0
3	3087	2.5	0
3	3298	3	0
3	3501	3.5	0
3	3704	4	0
3	3858	4.5	0
3	4011	5	0
3	4164	5.5	0
3	4316	6	0