version 2
run simpleNet-0-20181107-06:41:44-31727
attr configname simpleNet
attr datetime 20181107-06:41:44
attr experiment simpleNet
attr inifile omnetpp.ini
attr iterationvars ""
attr iterationvarsf ""
attr measurement ""
attr network simpleNet
attr processid 31727
attr repetition 0
attr replication #0
attr resultdir results
attr runnumber 0
attr seedset 0

vector 0 simpleNet.node[0] numInQueue:vector ETV
attr interpolationmode none
attr source numInQueue
attr title "total num in queue, vector"
vector 1 simpleNet.node[0] numProcessed:vector ETV
attr interpolationmode none
attr source numProcessed
attr title "num processed in statRate time, vector"
vector 2 simpleNet.node[1] numInQueue:vector ETV
attr interpolationmode none
attr source numInQueue
attr title "total num in queue, vector"
vector 3 simpleNet.node[1] numProcessed:vector ETV
attr interpolationmode none
attr source numProcessed
attr title "num processed in statRate time, vector"
vector 4 simpleNet.node[2] numInQueue:vector ETV
attr interpolationmode none
attr source numInQueue
attr title "total num in queue, vector"
vector 5 simpleNet.node[2] numProcessed:vector ETV
attr interpolationmode none
attr source numProcessed
attr title "num processed in statRate time, vector"
vector 6 simpleNet.node[3] numInQueue:vector ETV
attr interpolationmode none
attr source numInQueue
attr title "total num in queue, vector"
vector 7 simpleNet.node[3] numProcessed:vector ETV
attr interpolationmode none
attr source numProcessed
attr title "num processed in statRate time, vector"
vector 8 simpleNet.node[0] completionTime:vector ETV
attr interpolationmode none
attr source completionTime
attr title "completionTime, vector"
vector 9 simpleNet.node[3] completionTime:vector ETV
attr interpolationmode none
attr source completionTime
attr title "completionTime, vector"
0	2	0	0
0	3071	0.5	0
0	7075	1	0
0	11079	1.5	0
0	15083	2	0
0	19087	2.5	0
0	23091	3	0
0	27095	3.5	0
0	31099	4	0
0	35103	4.5	0
0	39107	5	0
0	43111	5.5	0
0	47115	6	0
0	51119	6.5	0
0	55123	7	0
0	59127	7.5	0
0	63131	8	0
0	67135	8.5	0
0	71139	9	0
0	75143	9.5	0
0	79145	10	0
0	80085	10.5	0
1	2	0	0
1	3071	0.5	268
1	7075	1	400
1	11079	1.5	400
1	15083	2	400
1	19087	2.5	400
1	23091	3	400
1	27095	3.5	400
1	31099	4	400
1	35103	4.5	400
1	39107	5	400
1	43111	5.5	400
1	47115	6	400
1	51119	6.5	400
1	55123	7	400
1	59127	7.5	400
1	63131	8	400
1	67135	8.5	400
1	71139	9	400
1	75143	9.5	400
1	79145	10	400
1	80085	10.5	132
2	3	0	0
2	3072	0.5	0
2	7076	1	0
2	11080	1.5	0
2	15084	2	0
2	19088	2.5	0
2	23092	3	0
2	27096	3.5	0
2	31100	4	0
2	35104	4.5	0
2	39108	5	0
2	43112	5.5	0
2	47116	6	0
2	51120	6.5	0
2	55124	7	0
2	59128	7.5	0
2	63132	8	0
2	67136	8.5	0
2	71140	9	0
2	75144	9.5	0
2	79146	10	0
2	80086	10.5	0
3	3	0	0
3	3072	0.5	536
3	7076	1	800
3	11080	1.5	800
3	15084	2	800
3	19088	2.5	800
3	23092	3	800
3	27096	3.5	800
3	31100	4	800
3	35104	4.5	800
3	39108	5	800
3	43112	5.5	800
3	47116	6	800
3	51120	6.5	800
3	55124	7	800
3	59128	7.5	800
3	63132	8	800
3	67136	8.5	800
3	71140	9	800
3	75144	9.5	800
3	79146	10	800
3	80086	10.5	264
4	4	0	0
4	3073	0.5	0
4	7077	1	0
4	11081	1.5	0
4	15085	2	0
4	19089	2.5	0
4	23093	3	0
4	27097	3.5	0
4	31101	4	0
4	35105	4.5	0
4	39109	5	0
4	43113	5.5	0
4	47117	6	0
4	51121	6.5	0
4	55125	7	0
4	59129	7.5	0
4	63133	8	0
4	67137	8.5	0
4	71141	9	0
4	75145	9.5	0
4	79147	10	0
4	80087	10.5	0
5	4	0	0
5	3073	0.5	536
5	7077	1	800
5	11081	1.5	800
5	15085	2	800
5	19089	2.5	800
5	23093	3	800
5	27097	3.5	800
5	31101	4	800
5	35105	4.5	800
5	39109	5	800
5	43113	5.5	800
5	47117	6	800
5	51121	6.5	800
5	55125	7	800
5	59129	7.5	800
5	63133	8	800
5	67137	8.5	800
5	71141	9	800
5	75145	9.5	800
5	79147	10	800
5	80087	10.5	264
6	6	0	0
6	3074	0.5	0
6	7078	1	0
6	11082	1.5	0
6	15086	2	0
6	19090	2.5	0
6	23094	3	0
6	27098	3.5	0
6	31102	4	0
6	35106	4.5	0
6	39110	5	0
6	43114	5.5	0
6	47118	6	0
6	51122	6.5	0
6	55126	7	0
6	59130	7.5	0
6	63134	8	0
6	67138	8.5	0
6	71142	9	0
6	75146	9.5	0
6	79148	10	0
6	80088	10.5	0
7	6	0	0
7	3074	0.5	268
7	7078	1	400
7	11082	1.5	400
7	15086	2	400
7	19090	2.5	400
7	23094	3	400
7	27098	3.5	400
7	31102	4	400
7	35106	4.5	400
7	39110	5	400
7	43114	5.5	400
7	47118	6	400
7	51122	6.5	400
7	55126	7	400
7	59130	7.5	400
7	63134	8	400
7	67138	8.5	400
7	71142	9	400
7	75146	9.5	400
7	79148	10	400
7	80088	10.5	132
8	548	0.18	0.18
8	566	0.1825	0.18
8	584	0.185	0.18
8	602	0.1875	0.18
8	620	0.19	0.18
8	638	0.1925	0.18
8	656	0.195	0.18
8	674	0.1975	0.18
8	692	0.2	0.18
8	710	0.2025	0.18
8	728	0.205	0.18
8	746	0.2075	0.18
8	764	0.21	0.18
8	784	0.2125	0.18
8	804	0.215	0.18
8	824	0.2175	0.18
8	844	0.22	0.18
8	864	0.2225	0.18
8	884	0.225	0.18
8	904	0.2275	0.18
8	924	0.23	0.18
8	944	0.2325	0.18
8	964	0.235	0.18
8	984	0.2375	0.18
8	1004	0.24	0.18
8	1024	0.2425	0.18
8	1044	0.245	0.18
8	1064	0.2475	0.18
8	1084	0.25	0.18
8	1104	0.2525	0.18
8	1124	0.255	0.18
8	1144	0.2575	0.18
8	1164	0.26	0.18
8	1184	0.2625	0.18
8	1204	0.265	0.18
8	1224	0.2675	0.18
8	1244	0.27	0.18
8	1264	0.2725	0.18
8	1284	0.275	0.18
8	1304	0.2775	0.18
8	1324	0.28	0.18
8	1344	0.2825	0.18
8	1364	0.285	0.18
8	1384	0.2875	0.18
8	1404	0.29	0.18
8	1424	0.2925	0.18
8	1444	0.295	0.18
8	1464	0.2975	0.18
8	1484	0.3	0.18
8	1504	0.3025	0.18
8	1524	0.305	0.18
8	1544	0.3075	0.18
8	1564	0.31	0.18
8	1584	0.3125	0.18
8	1604	0.315	0.18
8	1624	0.3175	0.18
8	1644	0.32	0.18
8	1664	0.3225	0.18
8	1684	0.325	0.18
8	1704	0.3275	0.18
8	1724	0.33	0.18
8	1744	0.3325	0.18
8	1764	0.335	0.18
8	1784	0.3375	0.18
8	1804	0.34	0.18
8	1824	0.3425	0.18
8	1844	0.345	0.18
8	1864	0.3475	0.18
8	1884	0.35	0.18
8	1904	0.3525	0.18
8	1924	0.355	0.18
8	1944	0.3575	0.18
8	1964	0.36	0.18
8	1984	0.3625	0.18
8	2004	0.365	0.18
8	2024	0.3675	0.18
8	2044	0.37	0.18
8	2064	0.3725	0.18
8	2084	0.375	0.18
8	2104	0.3775	0.18
8	2124	0.38	0.18
8	2144	0.3825	0.18
8	2164	0.385	0.18
8	2184	0.3875	0.18
8	2204	0.39	0.18
8	2224	0.3925	0.18
8	2244	0.395	0.18
8	2264	0.3975	0.18
8	2284	0.4	0.18
8	2304	0.4025	0.18
8	2324	0.405	0.18
8	2344	0.4075	0.18
8	2364	0.41	0.18
8	2384	0.4125	0.18
8	2404	0.415	0.18
8	2424	0.4175	0.18
8	2444	0.42	0.18
8	2464	0.4225	0.18
8	2484	0.425	0.18
8	2504	0.4275	0.18
8	2524	0.43	0.18
8	2544	0.4325	0.18
8	2564	0.435	0.18
8	2584	0.4375	0.18
8	2604	0.44	0.18
8	2624	0.4425	0.18
8	2644	0.445	0.18
8	2664	0.4475	0.18
8	2684	0.45	0.18
8	2704	0.4525	0.18
8	2724	0.455	0.18
8	2744	0.4575	0.18
8	2764	0.46	0.18
8	2784	0.4625	0.18
8	2804	0.465	0.18
8	2824	0.4675	0.18
8	2844	0.47	0.18
8	2864	0.4725	0.18
8	2884	0.475	0.18
8	2904	0.4775	0.18
8	2924	0.48	0.18
8	2944	0.4825	0.18
8	2964	0.485	0.18
8	2984	0.4875	0.18
8	3004	0.49	0.18
8	3024	0.4925	0.18
8	3044	0.495	0.18
8	3064	0.4975	0.18
8	3088	0.5	0.18
8	3108	0.5025	0.18
8	3128	0.505	0.18
8	3148	0.5075	0.18
8	3168	0.51	0.18
8	3188	0.5125	0.18
8	3208	0.515	0.18
8	3228	0.5175	0.18
8	3248	0.52	0.18
8	3268	0.5225	0.18
8	3288	0.525	0.18
8	3308	0.5275	0.18
8	3328	0.53	0.18
8	3348	0.5325	0.18
8	3368	0.535	0.18
8	3388	0.5375	0.18
8	3408	0.54	0.18
8	3428	0.5425	0.18
8	3448	0.545	0.18
8	3468	0.5475	0.18
8	3488	0.55	0.18
8	3508	0.5525	0.18
8	3528	0.555	0.18
8	3548	0.5575	0.18
8	3568	0.56	0.18
8	3588	0.5625	0.18
8	3608	0.565	0.18
8	3628	0.5675	0.18
8	3648	0.57	0.18
8	3668	0.5725	0.18
8	3688	0.575	0.18
8	3708	0.5775	0.18
8	3728	0.58	0.18
8	3748	0.5825	0.18
8	3768	0.585	0.18
8	3788	0.5875	0.18
8	3808	0.59	0.18
8	3828	0.5925	0.18
8	3848	0.595	0.18
8	3868	0.5975	0.18
8	3888	0.6	0.18
8	3908	0.6025	0.18
8	3928	0.605	0.18
8	3948	0.6075	0.18
8	3968	0.61	0.18
8	3988	0.6125	0.18
8	4008	0.615	0.18
8	4028	0.6175	0.18
8	4048	0.62	0.18
8	4068	0.6225	0.18
8	4088	0.625	0.18
8	4108	0.6275	0.18
8	4128	0.63	0.18
8	4148	0.6325	0.18
8	4168	0.635	0.18
8	4188	0.6375	0.18
8	4208	0.64	0.18
8	4228	0.6425	0.18
8	4248	0.645	0.18
8	4268	0.6475	0.18
8	4288	0.65	0.18
8	4308	0.6525	0.18
8	4328	0.655	0.18
8	4348	0.6575	0.18
8	4368	0.66	0.18
8	4388	0.6625	0.18
8	4408	0.665	0.18
8	4428	0.6675	0.18
8	4448	0.67	0.18
8	4468	0.6725	0.18
8	4488	0.675	0.18
8	4508	0.6775	0.18
8	4528	0.68	0.18
8	4548	0.6825	0.18
8	4568	0.685	0.18
8	4588	0.6875	0.18
8	4608	0.69	0.18
8	4628	0.6925	0.18
8	4648	0.695	0.18
8	4668	0.6975	0.18
8	4688	0.7	0.18
8	4708	0.7025	0.18
8	4728	0.705	0.18
8	4748	0.7075	0.18
8	4768	0.71	0.18
8	4788	0.7125	0.18
8	4808	0.715	0.18
8	4828	0.7175	0.18
8	4848	0.72	0.18
8	4868	0.7225	0.18
8	4888	0.725	0.18
8	4908	0.7275	0.18
8	4928	0.73	0.18
8	4948	0.7325	0.18
8	4968	0.735	0.18
8	4988	0.7375	0.18
8	5008	0.74	0.18
8	5028	0.7425	0.18
8	5048	0.745	0.18
8	5068	0.7475	0.18
8	5088	0.75	0.18
8	5108	0.7525	0.18
8	5128	0.755	0.18
8	5148	0.7575	0.18
8	5168	0.76	0.18
8	5188	0.7625	0.18
8	5208	0.765	0.18
8	5228	0.7675	0.18
8	5248	0.77	0.18
8	5268	0.7725	0.18
8	5288	0.775	0.18
8	5308	0.7775	0.18
8	5328	0.78	0.18
8	5348	0.7825	0.18
8	5368	0.785	0.18
8	5388	0.7875	0.18
8	5408	0.79	0.18
8	5428	0.7925	0.18
8	5448	0.795	0.18
8	5468	0.7975	0.18
8	5488	0.8	0.18
8	5508	0.8025	0.18
8	5528	0.805	0.18
8	5548	0.8075	0.18
8	5568	0.81	0.18
8	5588	0.8125	0.18
8	5608	0.815	0.18
8	5628	0.8175	0.18
8	5648	0.82	0.18
8	5668	0.8225	0.18
8	5688	0.825	0.18
8	5708	0.8275	0.18
8	5728	0.83	0.18
8	5748	0.8325	0.18
8	5768	0.835	0.18
8	5788	0.8375	0.18
8	5808	0.84	0.18
8	5828	0.8425	0.18
8	5848	0.845	0.18
8	5868	0.8475	0.18
8	5888	0.85	0.18
8	5908	0.8525	0.18
8	5928	0.855	0.18
8	5948	0.8575	0.18
8	5968	0.86	0.18
8	5988	0.8625	0.18
8	6008	0.865	0.18
8	6028	0.8675	0.18
8	6048	0.87	0.18
8	6068	0.8725	0.18
8	6088	0.875	0.18
8	6108	0.8775	0.18
8	6128	0.88	0.18
8	6148	0.8825	0.18
8	6168	0.885	0.18
8	6188	0.8875	0.18
8	6208	0.89	0.18
8	6228	0.8925	0.18
8	6248	0.895	0.18
8	6268	0.8975	0.18
8	6288	0.9	0.18
8	6308	0.9025	0.18
8	6328	0.905	0.18
8	6348	0.9075	0.18
8	6368	0.91	0.18
8	6388	0.9125	0.18
8	6408	0.915	0.18
8	6428	0.9175	0.18
8	6448	0.92	0.18
8	6468	0.9225	0.18
8	6488	0.925	0.18
8	6508	0.9275	0.18
8	6528	0.93	0.18
8	6548	0.9325	0.18
8	6568	0.935	0.18
8	6588	0.9375	0.18
8	6608	0.94	0.18
8	6628	0.9425	0.18
8	6648	0.945	0.18
8	6668	0.9475	0.18
8	6688	0.95	0.18
8	6708	0.9525	0.18
8	6728	0.955	0.18
8	6748	0.9575	0.18
8	6768	0.96	0.18
8	6788	0.9625	0.18
8	6808	0.965	0.18
8	6828	0.9675	0.18
8	6848	0.97	0.18
8	6868	0.9725	0.18
8	6888	0.975	0.18
8	6908	0.9775	0.18
8	6928	0.98	0.18
8	6948	0.9825	0.18
8	6968	0.985	0.18
8	6988	0.9875	0.18
8	7008	0.99	0.18
8	7028	0.9925	0.18
8	7048	0.995	0.18
8	7068	0.9975	0.18
8	7092	1	0.18
8	7112	1.0025	0.18
8	7132	1.005	0.18
8	7152	1.0075	0.18
8	7172	1.01	0.18
8	7192	1.0125	0.18
8	7212	1.015	0.18
8	7232	1.0175	0.18
8	7252	1.02	0.18
8	7272	1.0225	0.18
8	7292	1.025	0.18
8	7312	1.0275	0.18
8	7332	1.03	0.18
8	7352	1.0325	0.18
8	7372	1.035	0.18
8	7392	1.0375	0.18
8	7412	1.04	0.18
8	7432	1.0425	0.18
8	7452	1.045	0.18
8	7472	1.0475	0.18
8	7492	1.05	0.18
8	7512	1.0525	0.18
8	7532	1.055	0.18
8	7552	1.0575	0.18
8	7572	1.06	0.18
8	7592	1.0625	0.18
8	7612	1.065	0.18
8	7632	1.0675	0.18
8	7652	1.07	0.18
8	7672	1.0725	0.18
8	7692	1.075	0.18
8	7712	1.0775	0.18
8	7732	1.08	0.18
8	7752	1.0825	0.18
8	7772	1.085	0.18
8	7792	1.0875	0.18
8	7812	1.09	0.18
8	7832	1.0925	0.18
8	7852	1.095	0.18
8	7872	1.0975	0.18
8	7892	1.1	0.18
8	7912	1.1025	0.18
8	7932	1.105	0.18
8	7952	1.1075	0.18
8	7972	1.11	0.18
8	7992	1.1125	0.18
8	8012	1.115	0.18
8	8032	1.1175	0.18
8	8052	1.12	0.18
8	8072	1.1225	0.18
8	8092	1.125	0.18
8	8112	1.1275	0.18
8	8132	1.13	0.18
8	8152	1.1325	0.18
8	8172	1.135	0.18
8	8192	1.1375	0.18
8	8212	1.14	0.18
8	8232	1.1425	0.18
8	8252	1.145	0.18
8	8272	1.1475	0.18
8	8292	1.15	0.18
8	8312	1.1525	0.18
8	8332	1.155	0.18
8	8352	1.1575	0.18
8	8372	1.16	0.18
8	8392	1.1625	0.18
8	8412	1.165	0.18
8	8432	1.1675	0.18
8	8452	1.17	0.18
8	8472	1.1725	0.18
8	8492	1.175	0.18
8	8512	1.1775	0.18
8	8532	1.18	0.18
8	8552	1.1825	0.18
8	8572	1.185	0.18
8	8592	1.1875	0.18
8	8612	1.19	0.18
8	8632	1.1925	0.18
8	8652	1.195	0.18
8	8672	1.1975	0.18
8	8692	1.2	0.18
8	8712	1.2025	0.18
8	8732	1.205	0.18
8	8752	1.2075	0.18
8	8772	1.21	0.18
8	8792	1.2125	0.18
8	8812	1.215	0.18
8	8832	1.2175	0.18
8	8852	1.22	0.18
8	8872	1.2225	0.18
8	8892	1.225	0.18
8	8912	1.2275	0.18
8	8932	1.23	0.18
8	8952	1.2325	0.18
8	8972	1.235	0.18
8	8992	1.2375	0.18
8	9012	1.24	0.18
8	9032	1.2425	0.18
8	9052	1.245	0.18
8	9072	1.2475	0.18
8	9092	1.25	0.18
8	9112	1.2525	0.18
8	9132	1.255	0.18
8	9152	1.2575	0.18
8	9172	1.26	0.18
8	9192	1.2625	0.18
8	9212	1.265	0.18
8	9232	1.2675	0.18
8	9252	1.27	0.18
8	9272	1.2725	0.18
8	9292	1.275	0.18
8	9312	1.2775	0.18
8	9332	1.28	0.18
8	9352	1.2825	0.18
8	9372	1.285	0.18
8	9392	1.2875	0.18
8	9412	1.29	0.18
8	9432	1.2925	0.18
8	9452	1.295	0.18
8	9472	1.2975	0.18
8	9492	1.3	0.18
8	9512	1.3025	0.18
8	9532	1.305	0.18
8	9552	1.3075	0.18
8	9572	1.31	0.18
8	9592	1.3125	0.18
8	9612	1.315	0.18
8	9632	1.3175	0.18
8	9652	1.32	0.18
8	9672	1.3225	0.18
8	9692	1.325	0.18
8	9712	1.3275	0.18
8	9732	1.33	0.18
8	9752	1.3325	0.18
8	9772	1.335	0.18
8	9792	1.3375	0.18
8	9812	1.34	0.18
8	9832	1.3425	0.18
8	9852	1.345	0.18
8	9872	1.3475	0.18
8	9892	1.35	0.18
8	9912	1.3525	0.18
8	9932	1.355	0.18
8	9952	1.3575	0.18
8	9972	1.36	0.18
8	9992	1.3625	0.18
8	10012	1.365	0.18
8	10032	1.3675	0.18
8	10052	1.37	0.18
8	10072	1.3725	0.18
8	10092	1.375	0.18
8	10112	1.3775	0.18
8	10132	1.38	0.18
8	10152	1.3825	0.18
8	10172	1.385	0.18
8	10192	1.3875	0.18
8	10212	1.39	0.18
8	10232	1.3925	0.18
8	10252	1.395	0.18
8	10272	1.3975	0.18
8	10292	1.4	0.18
8	10312	1.4025	0.18
8	10332	1.405	0.18
8	10352	1.4075	0.18
8	10372	1.41	0.18
8	10392	1.4125	0.18
8	10412	1.415	0.18
8	10432	1.4175	0.18
8	10452	1.42	0.18
8	10472	1.4225	0.18
8	10492	1.425	0.18
8	10512	1.4275	0.18
8	10532	1.43	0.18
8	10552	1.4325	0.18
8	10572	1.435	0.18
8	10592	1.4375	0.18
8	10612	1.44	0.18
8	10632	1.4425	0.18
8	10652	1.445	0.18
8	10672	1.4475	0.18
8	10692	1.45	0.18
8	10712	1.4525	0.18
8	10732	1.455	0.18
8	10752	1.4575	0.18
8	10772	1.46	0.18
8	10792	1.4625	0.18
8	10812	1.465	0.18
8	10832	1.4675	0.18
8	10852	1.47	0.18
8	10872	1.4725	0.18
8	10892	1.475	0.18
8	10912	1.4775	0.18
8	10932	1.48	0.18
8	10952	1.4825	0.18
8	10972	1.485	0.18
8	10992	1.4875	0.18
8	11012	1.49	0.18
8	11032	1.4925	0.18
8	11052	1.495	0.18
8	11072	1.4975	0.18
8	11096	1.5	0.18
8	11116	1.5025	0.18
8	11136	1.505	0.18
8	11156	1.5075	0.18
8	11176	1.51	0.18
8	11196	1.5125	0.18
8	11216	1.515	0.18
8	11236	1.5175	0.18
8	11256	1.52	0.18
8	11276	1.5225	0.18
8	11296	1.525	0.18
8	11316	1.5275	0.18
8	11336	1.53	0.18
8	11356	1.5325	0.18
8	11376	1.535	0.18
8	11396	1.5375	0.18
8	11416	1.54	0.18
8	11436	1.5425	0.18
8	11456	1.545	0.18
8	11476	1.5475	0.18
8	11496	1.55	0.18
8	11516	1.5525	0.18
8	11536	1.555	0.18
8	11556	1.5575	0.18
8	11576	1.56	0.18
8	11596	1.5625	0.18
8	11616	1.565	0.18
8	11636	1.5675	0.18
8	11656	1.57	0.18
8	11676	1.5725	0.18
8	11696	1.575	0.18
8	11716	1.5775	0.18
8	11736	1.58	0.18
8	11756	1.5825	0.18
8	11776	1.585	0.18
8	11796	1.5875	0.18
8	11816	1.59	0.18
8	11836	1.5925	0.18
8	11856	1.595	0.18
8	11876	1.5975	0.18
8	11896	1.6	0.18
8	11916	1.6025	0.18
8	11936	1.605	0.18
8	11956	1.6075	0.18
8	11976	1.61	0.18
8	11996	1.6125	0.18
8	12016	1.615	0.18
8	12036	1.6175	0.18
8	12056	1.62	0.18
8	12076	1.6225	0.18
8	12096	1.625	0.18
8	12116	1.6275	0.18
8	12136	1.63	0.18
8	12156	1.6325	0.18
8	12176	1.635	0.18
8	12196	1.6375	0.18
8	12216	1.64	0.18
8	12236	1.6425	0.18
8	12256	1.645	0.18
8	12276	1.6475	0.18
8	12296	1.65	0.18
8	12316	1.6525	0.18
8	12336	1.655	0.18
8	12356	1.6575	0.18
8	12376	1.66	0.18
8	12396	1.6625	0.18
8	12416	1.665	0.18
8	12436	1.6675	0.18
8	12456	1.67	0.18
8	12476	1.6725	0.18
8	12496	1.675	0.18
8	12516	1.6775	0.18
8	12536	1.68	0.18
8	12556	1.6825	0.18
8	12576	1.685	0.18
8	12596	1.6875	0.18
8	12616	1.69	0.18
8	12636	1.6925	0.18
8	12656	1.695	0.18
8	12676	1.6975	0.18
8	12696	1.7	0.18
8	12716	1.7025	0.18
8	12736	1.705	0.18
8	12756	1.7075	0.18
8	12776	1.71	0.18
8	12796	1.7125	0.18
8	12816	1.715	0.18
8	12836	1.7175	0.18
8	12856	1.72	0.18
8	12876	1.7225	0.18
8	12896	1.725	0.18
8	12916	1.7275	0.18
8	12936	1.73	0.18
8	12956	1.7325	0.18
8	12976	1.735	0.18
8	12996	1.7375	0.18
8	13016	1.74	0.18
8	13036	1.7425	0.18
8	13056	1.745	0.18
8	13076	1.7475	0.18
8	13096	1.75	0.18
8	13116	1.7525	0.18
8	13136	1.755	0.18
8	13156	1.7575	0.18
8	13176	1.76	0.18
8	13196	1.7625	0.18
8	13216	1.765	0.18
8	13236	1.7675	0.18
8	13256	1.77	0.18
8	13276	1.7725	0.18
8	13296	1.775	0.18
8	13316	1.7775	0.18
8	13336	1.78	0.18
8	13356	1.7825	0.18
8	13376	1.785	0.18
8	13396	1.7875	0.18
8	13416	1.79	0.18
8	13436	1.7925	0.18
8	13456	1.795	0.18
8	13476	1.7975	0.18
8	13496	1.8	0.18
8	13516	1.8025	0.18
8	13536	1.805	0.18
8	13556	1.8075	0.18
8	13576	1.81	0.18
8	13596	1.8125	0.18
8	13616	1.815	0.18
8	13636	1.8175	0.18
8	13656	1.82	0.18
8	13676	1.8225	0.18
8	13696	1.825	0.18
8	13716	1.8275	0.18
8	13736	1.83	0.18
8	13756	1.8325	0.18
8	13776	1.835	0.18
8	13796	1.8375	0.18
8	13816	1.84	0.18
8	13836	1.8425	0.18
8	13856	1.845	0.18
8	13876	1.8475	0.18
8	13896	1.85	0.18
8	13916	1.8525	0.18
8	13936	1.855	0.18
8	13956	1.8575	0.18
8	13976	1.86	0.18
8	13996	1.8625	0.18
8	14016	1.865	0.18
8	14036	1.8675	0.18
8	14056	1.87	0.18
8	14076	1.8725	0.18
8	14096	1.875	0.18
8	14116	1.8775	0.18
8	14136	1.88	0.18
8	14156	1.8825	0.18
8	14176	1.885	0.18
8	14196	1.8875	0.18
8	14216	1.89	0.18
8	14236	1.8925	0.18
8	14256	1.895	0.18
8	14276	1.8975	0.18
8	14296	1.9	0.18
8	14316	1.9025	0.18
8	14336	1.905	0.18
8	14356	1.9075	0.18
8	14376	1.91	0.18
8	14396	1.9125	0.18
8	14416	1.915	0.18
8	14436	1.9175	0.18
8	14456	1.92	0.18
8	14476	1.9225	0.18
8	14496	1.925	0.18
8	14516	1.9275	0.18
8	14536	1.93	0.18
8	14556	1.9325	0.18
8	14576	1.935	0.18
8	14596	1.9375	0.18
8	14616	1.94	0.18
8	14636	1.9425	0.18
8	14656	1.945	0.18
8	14676	1.9475	0.18
8	14696	1.95	0.18
8	14716	1.9525	0.18
8	14736	1.955	0.18
8	14756	1.9575	0.18
8	14776	1.96	0.18
8	14796	1.9625	0.18
8	14816	1.965	0.18
8	14836	1.9675	0.18
8	14856	1.97	0.18
8	14876	1.9725	0.18
8	14896	1.975	0.18
8	14916	1.9775	0.18
8	14936	1.98	0.18
8	14956	1.9825	0.18
8	14976	1.985	0.18
8	14996	1.9875	0.18
8	15016	1.99	0.18
8	15036	1.9925	0.18
8	15056	1.995	0.18
8	15076	1.9975	0.18
8	15100	2	0.18
8	15120	2.0025	0.18
8	15140	2.005	0.18
8	15160	2.0075	0.18
8	15180	2.01	0.18
8	15200	2.0125	0.18
8	15220	2.015	0.18
8	15240	2.0175	0.18
8	15260	2.02	0.18
8	15280	2.0225	0.18
8	15300	2.025	0.18
8	15320	2.0275	0.18
8	15340	2.03	0.18
8	15360	2.0325	0.18
8	15380	2.035	0.18
8	15400	2.0375	0.18
8	15420	2.04	0.18
8	15440	2.0425	0.18
8	15460	2.045	0.18
8	15480	2.0475	0.18
8	15500	2.05	0.18
8	15520	2.0525	0.18
8	15540	2.055	0.18
8	15560	2.0575	0.18
8	15580	2.06	0.18
8	15600	2.0625	0.18
8	15620	2.065	0.18
8	15640	2.0675	0.18
8	15660	2.07	0.18
8	15680	2.0725	0.18
8	15700	2.075	0.18
8	15720	2.0775	0.18
8	15740	2.08	0.18
8	15760	2.0825	0.18
8	15780	2.085	0.18
8	15800	2.0875	0.18
8	15820	2.09	0.18
8	15840	2.0925	0.18
8	15860	2.095	0.18
8	15880	2.0975	0.18
8	15900	2.1	0.18
8	15920	2.1025	0.18
8	15940	2.105	0.18
8	15960	2.1075	0.18
8	15980	2.11	0.18
8	16000	2.1125	0.18
8	16020	2.115	0.18
8	16040	2.1175	0.18
8	16060	2.12	0.18
8	16080	2.1225	0.18
8	16100	2.125	0.18
8	16120	2.1275	0.18
8	16140	2.13	0.18
8	16160	2.1325	0.18
8	16180	2.135	0.18
8	16200	2.1375	0.18
8	16220	2.14	0.18
8	16240	2.1425	0.18
8	16260	2.145	0.18
8	16280	2.1475	0.18
8	16300	2.15	0.18
8	16320	2.1525	0.18
8	16340	2.155	0.18
8	16360	2.1575	0.18
8	16380	2.16	0.18
8	16400	2.1625	0.18
8	16420	2.165	0.18
8	16440	2.1675	0.18
8	16460	2.17	0.18
8	16480	2.1725	0.18
8	16500	2.175	0.18
8	16520	2.1775	0.18
8	16540	2.18	0.18
8	16560	2.1825	0.18
8	16580	2.185	0.18
8	16600	2.1875	0.18
8	16620	2.19	0.18
8	16640	2.1925	0.18
8	16660	2.195	0.18
8	16680	2.1975	0.18
8	16700	2.2	0.18
8	16720	2.2025	0.18
8	16740	2.205	0.18
8	16760	2.2075	0.18
8	16780	2.21	0.18
8	16800	2.2125	0.18
8	16820	2.215	0.18
8	16840	2.2175	0.18
8	16860	2.22	0.18
8	16880	2.2225	0.18
8	16900	2.225	0.18
8	16920	2.2275	0.18
8	16940	2.23	0.18
8	16960	2.2325	0.18
8	16980	2.235	0.18
8	17000	2.2375	0.18
8	17020	2.24	0.18
8	17040	2.2425	0.18
8	17060	2.245	0.18
8	17080	2.2475	0.18
8	17100	2.25	0.18
8	17120	2.2525	0.18
8	17140	2.255	0.18
8	17160	2.2575	0.18
8	17180	2.26	0.18
8	17200	2.2625	0.18
8	17220	2.265	0.18
8	17240	2.2675	0.18
8	17260	2.27	0.18
8	17280	2.2725	0.18
8	17300	2.275	0.18
8	17320	2.2775	0.18
8	17340	2.28	0.18
8	17360	2.2825	0.18
8	17380	2.285	0.18
8	17400	2.2875	0.18
8	17420	2.29	0.18
8	17440	2.2925	0.18
8	17460	2.295	0.18
8	17480	2.2975	0.18
8	17500	2.3	0.18
8	17520	2.3025	0.18
8	17540	2.305	0.18
8	17560	2.3075	0.18
8	17580	2.31	0.18
8	17600	2.3125	0.18
8	17620	2.315	0.18
8	17640	2.3175	0.18
8	17660	2.32	0.18
8	17680	2.3225	0.18
8	17700	2.325	0.18
8	17720	2.3275	0.18
8	17740	2.33	0.18
8	17760	2.3325	0.18
8	17780	2.335	0.18
8	17800	2.3375	0.18
8	17820	2.34	0.18
8	17840	2.3425	0.18
8	17860	2.345	0.18
8	17880	2.3475	0.18
8	17900	2.35	0.18
8	17920	2.3525	0.18
8	17940	2.355	0.18
8	17960	2.3575	0.18
8	17980	2.36	0.18
8	18000	2.3625	0.18
8	18020	2.365	0.18
8	18040	2.3675	0.18
8	18060	2.37	0.18
8	18080	2.3725	0.18
8	18100	2.375	0.18
8	18120	2.3775	0.18
8	18140	2.38	0.18
8	18160	2.3825	0.18
8	18180	2.385	0.18
8	18200	2.3875	0.18
8	18220	2.39	0.18
8	18240	2.3925	0.18
8	18260	2.395	0.18
8	18280	2.3975	0.18
8	18300	2.4	0.18
8	18320	2.4025	0.18
8	18340	2.405	0.18
8	18360	2.4075	0.18
8	18380	2.41	0.18
8	18400	2.4125	0.18
8	18420	2.415	0.18
8	18440	2.4175	0.18
8	18460	2.42	0.18
8	18480	2.4225	0.18
8	18500	2.425	0.18
8	18520	2.4275	0.18
8	18540	2.43	0.18
8	18560	2.4325	0.18
8	18580	2.435	0.18
8	18600	2.4375	0.18
8	18620	2.44	0.18
8	18640	2.4425	0.18
8	18660	2.445	0.18
8	18680	2.4475	0.18
8	18700	2.45	0.18
8	18720	2.4525	0.18
8	18740	2.455	0.18
8	18760	2.4575	0.18
8	18780	2.46	0.18
8	18800	2.4625	0.18
8	18820	2.465	0.18
8	18840	2.4675	0.18
8	18860	2.47	0.18
8	18880	2.4725	0.18
8	18900	2.475	0.18
8	18920	2.4775	0.18
8	18940	2.48	0.18
8	18960	2.4825	0.18
8	18980	2.485	0.18
8	19000	2.4875	0.18
8	19020	2.49	0.18
8	19040	2.4925	0.18
8	19060	2.495	0.18
8	19080	2.4975	0.18
8	19104	2.5	0.18
8	19124	2.5025	0.18
8	19144	2.505	0.18
8	19164	2.5075	0.18
8	19184	2.51	0.18
8	19204	2.5125	0.18
8	19224	2.515	0.18
8	19244	2.5175	0.18
8	19264	2.52	0.18
8	19284	2.5225	0.18
8	19304	2.525	0.18
8	19324	2.5275	0.18
8	19344	2.53	0.18
8	19364	2.5325	0.18
8	19384	2.535	0.18
8	19404	2.5375	0.18
8	19424	2.54	0.18
8	19444	2.5425	0.18
8	19464	2.545	0.18
8	19484	2.5475	0.18
8	19504	2.55	0.18
8	19524	2.5525	0.18
8	19544	2.555	0.18
8	19564	2.5575	0.18
8	19584	2.56	0.18
8	19604	2.5625	0.18
8	19624	2.565	0.18
8	19644	2.5675	0.18
8	19664	2.57	0.18
8	19684	2.5725	0.18
8	19704	2.575	0.18
8	19724	2.5775	0.18
8	19744	2.58	0.18
8	19764	2.5825	0.18
8	19784	2.585	0.18
8	19804	2.5875	0.18
8	19824	2.59	0.18
8	19844	2.5925	0.18
8	19864	2.595	0.18
8	19884	2.5975	0.18
8	19904	2.6	0.18
8	19924	2.6025	0.18
8	19944	2.605	0.18
8	19964	2.6075	0.18
8	19984	2.61	0.18
8	20004	2.6125	0.18
8	20024	2.615	0.18
8	20044	2.6175	0.18
8	20064	2.62	0.18
8	20084	2.6225	0.18
8	20104	2.625	0.18
8	20124	2.6275	0.18
8	20144	2.63	0.18
8	20164	2.6325	0.18
8	20184	2.635	0.18
8	20204	2.6375	0.18
8	20224	2.64	0.18
8	20244	2.6425	0.18
8	20264	2.645	0.18
8	20284	2.6475	0.18
8	20304	2.65	0.18
8	20324	2.6525	0.18
8	20344	2.655	0.18
8	20364	2.6575	0.18
8	20384	2.66	0.18
8	20404	2.6625	0.18
8	20424	2.665	0.18
8	20444	2.6675	0.18
8	20464	2.67	0.18
8	20484	2.6725	0.18
8	20504	2.675	0.18
8	20524	2.6775	0.18
8	20544	2.68	0.18
8	20564	2.6825	0.18
8	20584	2.685	0.18
8	20604	2.6875	0.18
8	20624	2.69	0.18
8	20644	2.6925	0.18
8	20664	2.695	0.18
8	20684	2.6975	0.18
8	20704	2.7	0.18
8	20724	2.7025	0.18
8	20744	2.705	0.18
8	20764	2.7075	0.18
8	20784	2.71	0.18
8	20804	2.7125	0.18
8	20824	2.715	0.18
8	20844	2.7175	0.18
8	20864	2.72	0.18
8	20884	2.7225	0.18
8	20904	2.725	0.18
8	20924	2.7275	0.18
8	20944	2.73	0.18
8	20964	2.7325	0.18
8	20984	2.735	0.18
8	21004	2.7375	0.18
8	21024	2.74	0.18
8	21044	2.7425	0.18
8	21064	2.745	0.18
8	21084	2.7475	0.18
8	21104	2.75	0.18
8	21124	2.7525	0.18
8	21144	2.755	0.18
8	21164	2.7575	0.18
8	21184	2.76	0.18
8	21204	2.7625	0.18
8	21224	2.765	0.18
8	21244	2.7675	0.18
8	21264	2.77	0.18
8	21284	2.7725	0.18
8	21304	2.775	0.18
8	21324	2.7775	0.18
8	21344	2.78	0.18
8	21364	2.7825	0.18
8	21384	2.785	0.18
8	21404	2.7875	0.18
8	21424	2.79	0.18
8	21444	2.7925	0.18
8	21464	2.795	0.18
8	21484	2.7975	0.18
8	21504	2.8	0.18
8	21524	2.8025	0.18
8	21544	2.805	0.18
8	21564	2.8075	0.18
8	21584	2.81	0.18
8	21604	2.8125	0.18
8	21624	2.815	0.18
8	21644	2.8175	0.18
8	21664	2.82	0.18
8	21684	2.8225	0.18
8	21704	2.825	0.18
8	21724	2.8275	0.18
8	21744	2.83	0.18
8	21764	2.8325	0.18
8	21784	2.835	0.18
8	21804	2.8375	0.18
8	21824	2.84	0.18
8	21844	2.8425	0.18
8	21864	2.845	0.18
8	21884	2.8475	0.18
8	21904	2.85	0.18
8	21924	2.8525	0.18
8	21944	2.855	0.18
8	21964	2.8575	0.18
8	21984	2.86	0.18
8	22004	2.8625	0.18
8	22024	2.865	0.18
8	22044	2.8675	0.18
8	22064	2.87	0.18
8	22084	2.8725	0.18
8	22104	2.875	0.18
8	22124	2.8775	0.18
8	22144	2.88	0.18
8	22164	2.8825	0.18
8	22184	2.885	0.18
8	22204	2.8875	0.18
8	22224	2.89	0.18
8	22244	2.8925	0.18
8	22264	2.895	0.18
8	22284	2.8975	0.18
8	22304	2.9	0.18
8	22324	2.9025	0.18
8	22344	2.905	0.18
8	22364	2.9075	0.18
8	22384	2.91	0.18
8	22404	2.9125	0.18
8	22424	2.915	0.18
8	22444	2.9175	0.18
8	22464	2.92	0.18
8	22484	2.9225	0.18
8	22504	2.925	0.18
8	22524	2.9275	0.18
8	22544	2.93	0.18
8	22564	2.9325	0.18
8	22584	2.935	0.18
8	22604	2.9375	0.18
8	22624	2.94	0.18
8	22644	2.9425	0.18
8	22664	2.945	0.18
8	22684	2.9475	0.18
8	22704	2.95	0.18
8	22724	2.9525	0.18
8	22744	2.955	0.18
8	22764	2.9575	0.18
8	22784	2.96	0.18
8	22804	2.9625	0.18
8	22824	2.965	0.18
8	22844	2.9675	0.18
8	22864	2.97	0.18
8	22884	2.9725	0.18
8	22904	2.975	0.18
8	22924	2.9775	0.18
8	22944	2.98	0.18
8	22964	2.9825	0.18
8	22984	2.985	0.18
8	23004	2.9875	0.18
8	23024	2.99	0.18
8	23044	2.9925	0.18
8	23064	2.995	0.18
8	23084	2.9975	0.18
8	23108	3	0.18
8	23128	3.0025	0.18
8	23148	3.005	0.18
8	23168	3.0075	0.18
8	23188	3.01	0.18
8	23208	3.0125	0.18
8	23228	3.015	0.18
8	23248	3.0175	0.18
8	23268	3.02	0.18
8	23288	3.0225	0.18
8	23308	3.025	0.18
8	23328	3.0275	0.18
8	23348	3.03	0.18
8	23368	3.0325	0.18
8	23388	3.035	0.18
8	23408	3.0375	0.18
8	23428	3.04	0.18
8	23448	3.0425	0.18
8	23468	3.045	0.18
8	23488	3.0475	0.18
8	23508	3.05	0.18
8	23528	3.0525	0.18
8	23548	3.055	0.18
8	23568	3.0575	0.18
8	23588	3.06	0.18
8	23608	3.0625	0.18
8	23628	3.065	0.18
8	23648	3.0675	0.18
8	23668	3.07	0.18
8	23688	3.0725	0.18
8	23708	3.075	0.18
8	23728	3.0775	0.18
8	23748	3.08	0.18
8	23768	3.0825	0.18
8	23788	3.085	0.18
8	23808	3.0875	0.18
8	23828	3.09	0.18
8	23848	3.0925	0.18
8	23868	3.095	0.18
8	23888	3.0975	0.18
8	23908	3.1	0.18
8	23928	3.1025	0.18
8	23948	3.105	0.18
8	23968	3.1075	0.18
8	23988	3.11	0.18
8	24008	3.1125	0.18
8	24028	3.115	0.18
8	24048	3.1175	0.18
8	24068	3.12	0.18
8	24088	3.1225	0.18
8	24108	3.125	0.18
8	24128	3.1275	0.18
8	24148	3.13	0.18
8	24168	3.1325	0.18
8	24188	3.135	0.18
8	24208	3.1375	0.18
8	24228	3.14	0.18
8	24248	3.1425	0.18
8	24268	3.145	0.18
8	24288	3.1475	0.18
8	24308	3.15	0.18
8	24328	3.1525	0.18
8	24348	3.155	0.18
8	24368	3.1575	0.18
8	24388	3.16	0.18
8	24408	3.1625	0.18
8	24428	3.165	0.18
8	24448	3.1675	0.18
8	24468	3.17	0.18
8	24488	3.1725	0.18
8	24508	3.175	0.18
8	24528	3.1775	0.18
8	24548	3.18	0.18
8	24568	3.1825	0.18
8	24588	3.185	0.18
8	24608	3.1875	0.18
8	24628	3.19	0.18
8	24648	3.1925	0.18
8	24668	3.195	0.18
8	24688	3.1975	0.18
8	24708	3.2	0.18
8	24728	3.2025	0.18
8	24748	3.205	0.18
8	24768	3.2075	0.18
8	24788	3.21	0.18
8	24808	3.2125	0.18
8	24828	3.215	0.18
8	24848	3.2175	0.18
8	24868	3.22	0.18
8	24888	3.2225	0.18
8	24908	3.225	0.18
8	24928	3.2275	0.18
8	24948	3.23	0.18
8	24968	3.2325	0.18
8	24988	3.235	0.18
8	25008	3.2375	0.18
8	25028	3.24	0.18
8	25048	3.2425	0.18
8	25068	3.245	0.18
8	25088	3.2475	0.18
8	25108	3.25	0.18
8	25128	3.2525	0.18
8	25148	3.255	0.18
8	25168	3.2575	0.18
8	25188	3.26	0.18
8	25208	3.2625	0.18
8	25228	3.265	0.18
8	25248	3.2675	0.18
8	25268	3.27	0.18
8	25288	3.2725	0.18
8	25308	3.275	0.18
8	25328	3.2775	0.18
8	25348	3.28	0.18
8	25368	3.2825	0.18
8	25388	3.285	0.18
8	25408	3.2875	0.18
8	25428	3.29	0.18
8	25448	3.2925	0.18
8	25468	3.295	0.18
8	25488	3.2975	0.18
8	25508	3.3	0.18
8	25528	3.3025	0.18
8	25548	3.305	0.18
8	25568	3.3075	0.18
8	25588	3.31	0.18
8	25608	3.3125	0.18
8	25628	3.315	0.18
8	25648	3.3175	0.18
8	25668	3.32	0.18
8	25688	3.3225	0.18
8	25708	3.325	0.18
8	25728	3.3275	0.18
8	25748	3.33	0.18
8	25768	3.3325	0.18
8	25788	3.335	0.18
8	25808	3.3375	0.18
8	25828	3.34	0.18
8	25848	3.3425	0.18
8	25868	3.345	0.18
8	25888	3.3475	0.18
8	25908	3.35	0.18
8	25928	3.3525	0.18
8	25948	3.355	0.18
8	25968	3.3575	0.18
8	25988	3.36	0.18
8	26008	3.3625	0.18
8	26028	3.365	0.18
8	26048	3.3675	0.18
8	26068	3.37	0.18
8	26088	3.3725	0.18
8	26108	3.375	0.18
8	26128	3.3775	0.18
8	26148	3.38	0.18
8	26168	3.3825	0.18
8	26188	3.385	0.18
8	26208	3.3875	0.18
8	26228	3.39	0.18
8	26248	3.3925	0.18
8	26268	3.395	0.18
8	26288	3.3975	0.18
8	26308	3.4	0.18
8	26328	3.4025	0.18
8	26348	3.405	0.18
8	26368	3.4075	0.18
8	26388	3.41	0.18
8	26408	3.4125	0.18
8	26428	3.415	0.18
8	26448	3.4175	0.18
8	26468	3.42	0.18
8	26488	3.4225	0.18
8	26508	3.425	0.18
8	26528	3.4275	0.18
8	26548	3.43	0.18
8	26568	3.4325	0.18
8	26588	3.435	0.18
8	26608	3.4375	0.18
8	26628	3.44	0.18
8	26648	3.4425	0.18
8	26668	3.445	0.18
8	26688	3.4475	0.18
8	26708	3.45	0.18
8	26728	3.4525	0.18
8	26748	3.455	0.18
8	26768	3.4575	0.18
8	26788	3.46	0.18
8	26808	3.4625	0.18
8	26828	3.465	0.18
8	26848	3.4675	0.18
8	26868	3.47	0.18
8	26888	3.4725	0.18
8	26908	3.475	0.18
8	26928	3.4775	0.18
8	26948	3.48	0.18
8	26968	3.4825	0.18
8	26988	3.485	0.18
8	27008	3.4875	0.18
8	27028	3.49	0.18
8	27048	3.4925	0.18
8	27068	3.495	0.18
8	27088	3.4975	0.18
8	27112	3.5	0.18
8	27132	3.5025	0.18
8	27152	3.505	0.18
8	27172	3.5075	0.18
8	27192	3.51	0.18
8	27212	3.5125	0.18
8	27232	3.515	0.18
8	27252	3.5175	0.18
8	27272	3.52	0.18
8	27292	3.5225	0.18
8	27312	3.525	0.18
8	27332	3.5275	0.18
8	27352	3.53	0.18
8	27372	3.5325	0.18
8	27392	3.535	0.18
8	27412	3.5375	0.18
8	27432	3.54	0.18
8	27452	3.5425	0.18
8	27472	3.545	0.18
8	27492	3.5475	0.18
8	27512	3.55	0.18
8	27532	3.5525	0.18
8	27552	3.555	0.18
8	27572	3.5575	0.18
8	27592	3.56	0.18
8	27612	3.5625	0.18
8	27632	3.565	0.18
8	27652	3.5675	0.18
8	27672	3.57	0.18
8	27692	3.5725	0.18
8	27712	3.575	0.18
8	27732	3.5775	0.18
8	27752	3.58	0.18
8	27772	3.5825	0.18
8	27792	3.585	0.18
8	27812	3.5875	0.18
8	27832	3.59	0.18