version 2
run simpleNet-0-20181107-06:30:36-31662
attr configname simpleNet
attr datetime 20181107-06:30:36
attr experiment simpleNet
attr inifile omnetpp.ini
attr iterationvars ""
attr iterationvarsf ""
attr measurement ""
attr network simpleNet
attr processid 31662
attr repetition 0
attr replication #0
attr resultdir results
attr runnumber 0
attr seedset 0

vector 0 simpleNet.node[0] numInQueue:vector ETV
attr interpolationmode none
attr source numInQueue
attr title "total num in queue, vector"
vector 1 simpleNet.node[0] numProcessed:vector ETV
attr interpolationmode none
attr source numProcessed
attr title "num processed in statRate time, vector"
vector 2 simpleNet.node[1] numInQueue:vector ETV
attr interpolationmode none
attr source numInQueue
attr title "total num in queue, vector"
vector 3 simpleNet.node[1] numProcessed:vector ETV
attr interpolationmode none
attr source numProcessed
attr title "num processed in statRate time, vector"
vector 4 simpleNet.node[2] numInQueue:vector ETV
attr interpolationmode none
attr source numInQueue
attr title "total num in queue, vector"
vector 5 simpleNet.node[2] numProcessed:vector ETV
attr interpolationmode none
attr source numProcessed
attr title "num processed in statRate time, vector"
vector 6 simpleNet.node[3] numInQueue:vector ETV
attr interpolationmode none
attr source numInQueue
attr title "total num in queue, vector"
vector 7 simpleNet.node[3] numProcessed:vector ETV
attr interpolationmode none
attr source numProcessed
attr title "num processed in statRate time, vector"
vector 8 simpleNet.node[0] completionTime:vector ETV
attr interpolationmode none
attr source completionTime
attr title "completionTime, vector"
vector 9 simpleNet.node[3] completionTime:vector ETV
attr interpolationmode none
attr source completionTime
attr title "completionTime, vector"
0	2	0	0
0	2342	0.5	0
0	5271	1	0
0	7966	1.5	0
0	10684	2	0
0	13852	2.5	0
0	17027	3	0
0	20001	3.5	0
0	23129	4	0
0	26221	4.5	0
0	29186	5	0
0	31909	5.5	0
0	34597	6	0
0	37395	6.5	0
0	40364	7	0
0	43636	7.5	0
0	46733	8	0
0	49609	8.5	0
0	52399	9	0
0	55473	9.5	0
0	58416	10	0
0	59599	10.5	0
1	2	0	0
1	2342	0.5	198
1	5271	1	293
1	7966	1.5	262
1	10684	2	270
1	13852	2.5	323
1	17027	3	312
1	20001	3.5	302
1	23129	4	310
1	26221	4.5	313
1	29186	5	290
1	31909	5.5	268
1	34597	6	268
1	37395	6.5	273
1	40364	7	287
1	43636	7.5	332
1	46733	8	306
1	49609	8.5	299
1	52399	9	273
1	55473	9.5	309
1	58416	10	286
1	59599	10.5	160
2	3	0	0
2	2343	0.5	15
2	5272	1	29
2	7967	1.5	57
2	10685	2	81
2	13853	2.5	77
2	17028	3	60
2	20002	3.5	67
2	23130	4	60
2	26222	4.5	58
2	29187	5	70
2	31910	5.5	86
2	34598	6	108
2	37396	6.5	133
2	40365	7	137
2	43637	7.5	133
2	46734	8	129
2	49610	8.5	128
2	52400	9	140
2	55474	9.5	124
2	58417	10	137
2	59600	10.5	87
3	3	0	0
3	2343	0.5	406
3	5272	1	573
3	7967	1.5	539
3	10685	2	528
3	13853	2.5	634
3	17028	3	644
3	20002	3.5	588
3	23130	4	614
3	26222	4.5	638
3	29187	5	587
3	31910	5.5	531
3	34598	6	534
3	37396	6.5	551
3	40365	7	571
3	43637	7.5	666
3	46734	8	612
3	49610	8.5	598
3	52400	9	534
3	55474	9.5	631
3	58417	10	575
3	59600	10.5	314
4	4	0	0
4	2344	0.5	0
4	5273	1	0
4	7968	1.5	0
4	10686	2	0
4	13854	2.5	0
4	17029	3	0
4	20003	3.5	0
4	23131	4	0
4	26223	4.5	0
4	29188	5	0
4	31911	5.5	0
4	34599	6	0
4	37397	6.5	0
4	40366	7	4
4	43638	7.5	0
4	46735	8	0
4	49611	8.5	0
4	52401	9	0
4	55475	9.5	0
4	58418	10	0
4	59601	10.5	0
5	4	0	0
5	2344	0.5	404
5	5273	1	580
5	7968	1.5	536
5	10686	2	522
5	13854	2.5	636
5	17029	3	634
5	20003	3.5	600
5	23131	4	621
5	26223	4.5	624
5	29188	5	595
5	31911	5.5	530
5	34599	6	532
5	37397	6.5	557
5	40366	7	574
5	43638	7.5	656
5	46735	8	623
5	49611	8.5	587
5	52401	9	537
5	55475	9.5	628
5	58418	10	568
5	59601	10.5	324
6	6	0	0
6	2345	0.5	0
6	5274	1	0
6	7969	1.5	0
6	10687	2	0
6	13855	2.5	0
6	17030	3	0
6	20004	3.5	0
6	23132	4	0
6	26224	4.5	0
6	29189	5	0
6	31912	5.5	0
6	34600	6	0
6	37398	6.5	0
6	40367	7	0
6	43639	7.5	0
6	46736	8	0
6	49612	8.5	0
6	52402	9	0
6	55476	9.5	0
6	58419	10	0
6	59602	10.5	0
7	6	0	0
7	2345	0.5	206
7	5274	1	287
7	7969	1.5	265
7	10687	2	267
7	13855	2.5	313
7	17030	3	321
7	20004	3.5	295
7	23132	4	308
7	26224	4.5	317
7	29189	5	300
7	31912	5.5	261
7	34600	6	267
7	37398	6.5	279
7	40367	7	285
7	43639	7.5	333
7	46736	8	307
7	49612	8.5	297
7	52402	9	261
7	55476	9.5	321
7	58419	10	287
7	59602	10.5	157
8	362	0.18	0.18
8	371	0.183025056965	0.18
8	392	0.187925803792	0.18
8	395	0.18821698201	0.18
8	406	0.189582762197	0.18
8	418	0.193117759338	0.18
8	439	0.196832195954	0.18
8	456	0.199110616589	0.18
8	524	0.213260636332	0.18
8	536	0.214797202138	0.18
8	591	0.224086721327	0.18
8	632	0.229784370869	0.18
8	639	0.230435489805	0.18
8	670	0.237131197013	0.18
8	674	0.237294677789	0.18
8	681	0.238459757119	0.18
8	686	0.239284712631	0.18
8	709	0.243545458788	0.18
8	732	0.24701825437	0.18
8	811	0.259113733888	0.18
8	817	0.260181265324	0.18
8	827	0.261193116086	0.18
8	854	0.265830841714	0.18
8	856	0.26635352301	0.18
8	880	0.270112641036	0.18
8	886	0.271204709218	0.18
8	905	0.274340107743	0.18
8	939	0.2796717543	0.18
8	975	0.286192159863	0.18
8	979	0.286788893572	0.18
8	1024	0.292050371353	0.18
8	1026	0.29213931254	0.18
8	1090	0.304093869932	0.18
8	1096	0.305018007556	0.18
8	1123	0.308701269667	0.18
8	1134	0.310320464527	0.18
8	1195	0.320741627752	0.18
8	1209	0.32171002181	0.18
8	1258	0.329719750988	0.18
8	1276	0.334086660635	0.18
8	1299	0.336714167133	0.18
8	1313	0.338636029135	0.18
8	1320	0.339085165894	0.18
8	1327	0.341110323981	0.18
8	1332	0.341266751331	0.18
8	1345	0.344007921008	0.18
8	1386	0.350199729593	0.18
8	1403	0.351504022431	0.18
8	1426	0.355177979761	0.18
8	1434	0.356638180732	0.18
8	1472	0.363672694588	0.18
8	1566	0.376926078048	0.18
8	1569	0.377189573085	0.18
8	1571	0.377320770168	0.18
8	1575	0.377478362624	0.18
8	1583	0.378887259147	0.18
8	1662	0.390416010952	0.18
8	1669	0.391928418235	0.18
8	1680	0.393746215252	0.18
8	1685	0.394396733238	0.18
8	1691	0.395238710401	0.18
8	1697	0.395700363392	0.18
8	1728	0.399740259711	0.18
8	1732	0.400256590339	0.18
8	1737	0.401249092073	0.18
8	1748	0.402121084613	0.18
8	1750	0.402459823353	0.18
8	1761	0.405091269977	0.18
8	1786	0.408025498601	0.18
8	1847	0.417054149284	0.18
8	1856	0.417959997438	0.18
8	1867	0.421651823869	0.18
8	1869	0.421875057274	0.18
8	1875	0.423289977235	0.18
8	1901	0.425704800122	0.18
8	1947	0.432884192379	0.18
8	1957	0.436183808364	0.18
8	1972	0.43865114434	0.18
8	1985	0.440230348015	0.18
8	2001	0.441619334407	0.180495233854
8	2016	0.443112669213	0.181099357739
8	2025	0.445763873426	0.182731824521
8	2029	0.446481016011	0.182905089529
8	2036	0.447418770714	0.182741681804
8	2054	0.452897106968	0.187174620814
8	2077	0.455812782987	0.185030400705
8	2116	0.461748244305	0.190501085604
8	2152	0.468770330031	0.191732266012
8	2173	0.471270674719	0.19101903999
8	2189	0.472209298262	0.191219869707
8	2219	0.479458232538	0.198283947407
8	2234	0.483452137278	0.19871195125
8	2350	0.500318362161	0.210649076573
8	2354	0.50088326514	0.208640506115
8	2364	0.501691096112	0.209402025059
8	2374	0.502816904456	0.195281670123
8	2396	0.507945737928	0.200252617077
8	2400	0.508429760659	0.193512347991
8	2403	0.509275466293	0.194261083122
8	2444	0.516102155883	0.199674355414
8	2453	0.517492901761	0.200576130652
8	2457	0.517885961005	0.200835104551
8	2464	0.518817688829	0.200687094761
8	2478	0.521262187311	0.201596550405
8	2485	0.521718350637	0.199729967513
8	2494	0.523733513916	0.20107790315
8	2505	0.525358512073	0.198894138108
8	2510	0.526828178974	0.198582133985
8	2519	0.527383761741	0.192128409741
8	2533	0.529916827862	0.193870230009
8	2547	0.531263760456	0.193994054071
8	2567	0.534174420677	0.195619752258
8	2571	0.534440186648	0.190111538314
8	2584	0.537333159316	0.18758155662
8	2607	0.543304366342	0.192073951669
8	2627	0.545576111972	0.194125100409
8	2629	0.545598955199	0.192889292818
8	2635	0.546156168255	0.192967471814
8	2640	0.54701825437	0.191701440668
8	2711	0.559113733888	0.203636127231
8	2716	0.560181265324	0.203207902803
8	2724	0.561193116086	0.203534405642
8	2758	0.565830841714	0.204625298082
8	2799	0.574665160689	0.212604001614
8	2810	0.576032442507	0.209174466916
8	2822	0.578051625198	0.209815760264
8	2827	0.578873912725	0.20885303752
8	2842	0.58190692439	0.211357422777
8	2861	0.586192159863	0.213455688847
8	2867	0.586985888552	0.213213934924
8	2900	0.592050371353	0.216357512346
8	2902	0.59213931254	0.214062447803
8	2958	0.604093869932	0.224094633843
8	2966	0.605018007556	0.224625653859
8	2983	0.608701269667	0.227574214094
8	2992	0.610320464527	0.226881676336
8	3052	0.620741627752	0.233601642777
8	3062	0.62171002181	0.232545552908
8	3099	0.629719750988	0.235172533448
8	3118	0.634086660635	0.235700096555
8	3131	0.636714167133	0.23684549649
8	3140	0.638636029135	0.23712025728
8	3144	0.639085165894	0.231774295531
8	3156	0.641110323981	0.231269851037
8	3158	0.641266751331	0.227477099105
8	3177	0.644007921008	0.226895102823
8	3215	0.650199729593	0.22424037017
8	3224	0.651504022431	0.220112023765
8	3246	0.655177979761	0.214640231475
8	3257	0.656638180732	0.21591386948
8	3286	0.663672694588	0.21880810105
8	3357	0.676926078048	0.230098917856
8	3359	0.677189573085	0.224759943337
8	3361	0.677320770168	0.224166981924
8	3364	0.677478362624	0.219968938464
8	3373	0.678887259147	0.217116712846
8	3438	0.690416010952	0.227074484122
8	3448	0.691928418235	0.22770411564
8	3457	0.693746215252	0.227868721494
8	3464	0.694396733238	0.22751794459
8	3510	0.704086452186	0.236746017493
8	3516	0.705106980909	0.23317725241
8	3555	0.711909303929	0.230195721174
8	3560	0.712962218085	0.229859699849
8	3626	0.72376944816	0.239892519618
8	3649	0.727651975799	0.24009145123
8	3684	0.735083031429	0.244032582487
8	3711	0.739470240043	0.247903612916
8	3721	0.741220746776	0.246855043809
8	3723	0.741316099136	0.242122785464
8	3779	0.750423456317	0.250715985122
8	3787	0.751271485129	0.248648157247
8	3810	0.755299799181	0.251371173627
8	3816	0.756900664524	0.248804731671
8	3843	0.762384229521	0.251249700746
8	3848	0.762907479409	0.249021725993
8	3878	0.767939567901	0.249510233636
8	3909	0.772926264866	0.251259366842
8	3921	0.775255997925	0.253050955008
8	3926	0.775506362789	0.252058690651
8	3965	0.782423258764	0.256654346731
8	3997	0.789750789137	0.261926116136
8	4001	0.790333281726	0.259646766835
8	4003	0.790416013284	0.259310179446
8	4010	0.791438100957	0.257122340921
8	4019	0.792648582527	0.25134519694
8	4030	0.794412980097	0.252746945005
8	4049	0.79766740255	0.255562159456
8	4081	0.803353035835	0.256801709282
8	4101	0.805862353125	0.25233960557
8	4169	0.819313380016	0.259026225174
8	4210	0.826609649498	0.263247290157
8	4249	0.832968996427	0.267875473654
8	4252	0.833560028895	0.264245967066
8	4290	0.837952831623	0.26833281871
8	4296	0.83907555235	0.268629265571
8	4303	0.839839643574	0.267176383319
8	4327	0.843977721195	0.266236036063
8	4337	0.845871196157	0.268125717018
8	4353	0.848938278187	0.268378536352
8	4377	0.853099456318	0.266738290122
8	4443	0.864204603467	0.277264133293
8	4446	0.86470031994	0.277182288395
8	4449	0.865094596372	0.271498286297
8	4495	0.870770394756	0.275327703763
8	4503	0.871966837505	0.272523067344
8	4519	0.874745438732	0.270338638119
8	4521	0.874779406188	0.261077691565
8	4552	0.881005532726	0.263085088663
8	4564	0.883079953109	0.263112137383
8	4594	0.88732999479	0.266372430473
8	4597	0.888179755946	0.265017953555
8	4616	0.890570606576	0.261157545686
8	4643	0.89548342733	0.264643297188
8	4647	0.895800072212	0.259800094501
8	4676	0.899446410834	0.261906462693
8	4702	0.904542054364	0.262663125557
8	4756	0.915641559131	0.271320925865
8	4779	0.918284961854	0.270283554639
8	4789	0.919470776081	0.270114059331
8	4810	0.922674457258	0.273055699773
8	4835	0.927048706586	0.275748435886
8	4932	0.945987766747	0.292715762763
8	4972	0.951390549044	0.297814278922
8	5058	0.96671966234	0.311594805626
8	5064	0.967688691438	0.306898523953
8	5067	0.968519674599	0.307574460342
8	5085	0.971408028104	0.309522445618
8	5090	0.972220193198	0.30956305838
8	5092	0.972234755206	0.307664385451
8	5097	0.973191882918	0.293522594928
8	5100	0.973670775866	0.287121008585
8	5116	0.976786731532	0.288052839907
8	5127	0.978699437023	0.289354944338
8	5171	0.984077819119	0.292097760516
8	5183	0.986119844353	0.290220924933
8	5211	0.989099039698	0.290465873223
8	5219	0.990960906931	0.286341956052
8	5268	0.999871967586	0.293902494317
8	5309	1.005762452381	0.292420814963
8	5342	1.009782833815	0.295272182986
8	5344	1.009874921786	0.292056424149
8	5351	1.011019393967	0.293028231189
8	5361	1.01208845524	0.292948676193
8	5395	1.017106585431	0.297604423739
8	5403	1.017950926608	0.297118236472
8	5405	1.01828417525	0.287950204252
8	5415	1.01983831509	0.283068671216
8	5434	1.022663112239	0.281288696908
8	5443	1.023934956201	0.282213234201
8	5448	1.024923136436	0.274982895508
8	5456	1.026393597774	0.275216002565
8	5459	1.02663545694	0.275289702889
8	5470	1.029324963211	0.277147295011
8	5519	1.037190707626	0.284174010133
8	5527	1.038602287958	0.28166167385
8	5529	1.038606256364	0.276037659086
8	5584	1.046857054198	0.283583453878
8	5591	1.047189799922	0.28197529465
8	5609	1.050692914713	0.284507711232
8	5621	1.05234993817	0.284348696237
8	5626	1.053228452595	0.283182892545
8	5683	1.064024186792	0.291744712068
8	5694	1.066456660781	0.291599600949
8	5701	1.067327789879	0.282902153957
8	5703	1.067329274874	0.282834721036
8	5721	1.070522773566	0.274309994245
8	5743	1.074719710696	0.276749494813
8	5752	1.07582572565	0.27187643662
8	5765	1.077793374057	0.272856777526
8	5787	1.082299497401	0.275590683476
8	5809	1.086946428899	0.279517470287
8	5827	1.090484650092	0.281763750045
8	5839	1.09217318224	0.280511230583
8	5880	1.100607045294	0.288135070143
8	5903	1.105454902508	0.286803493224
8	5907	1.105670464579	0.282380363662
8	5931	1.110286304553	0.286481260816
8	5935	1.111252440921	0.275689074952
8	5943	1.112016861639	0.275448356115
8	5967	1.11648555117	0.275415710153
8	5984	1.120326105421	0.275219630319
8	5992	1.120952760796	0.268651930298
8	6031	1.129194269201	0.27435783076
8	6056	1.13286115699	0.277852154388
8	6072	1.136745680662	0.274109141484
8	6074	1.136952712463	0.272735165844
8	6082	1.138307714418	0.2706770661
8	6094	1.1413005345	0.272096992033
8	6167	1.155067288061	0.283898487089
8	6172	1.155998851861	0.280654754296
8	6182	1.157002922073	0.279190217168
8	6189	1.159062129788	0.278991635691
8	6203	1.161201744692	0.279876137223
8	6205	1.161203384299	0.279080530691
8	6209	1.161712380799	0.278597571658
8	6213	1.162293013298	0.275129252838
8	6223	1.16398557707	0.272355553416
8	6230	1.165932130568	0.262700921645
8	6239	1.166962529079	0.261984762549
8	6271	1.173863008671	0.26317825689
8	6285	1.176105116742	0.263133286363
8	6315	1.182041341372	0.266003273322
8	6317	1.182361182013	0.266144496897
8	6334	1.186231799183	0.266217281759
8	6397	1.196295803074	0.270579107712
8	6403	1.197507337859	0.268105648393
8	6435	1.205677220835	0.273462776736
8	6442	1.20714177432	0.269731366167
8	6465	1.210586316163	0.265041079315
8	6468	1.210689075773	0.259344237142
8	6479	1.213027918905	0.261110315991
8	6484	1.214791581546	0.262756282632
8	6499	1.21779436408	0.264106177742
8	6516	1.220834024052	0.266573812344
8	6547	1.22552969363	0.268633293025
8	6635	1.242812340372	0.284974105957
8	6660	1.248882850635	0.289952371288
8	6665	1.249553173415	0.279512496082
8	6728	1.261206327914	0.290443780497
8	6731	1.261504730663	0.288144282812
8	6749	1.264062617164	0.28982277671
8	6753	1.264464585479	0.285074923727
8	6773	1.268782549901	0.288742957527
8	6780	1.2698081652	0.288673008849
8	6785	1.270610760831	0.289253818844
8	6870	1.287707883209	0.303748359005
8	6873	1.288340648081	0.299408189497
8	6893	1.293045015862	0.304062151323
8	6908	1.294165699833	0.304602940483
8	6922	1.297945806399	0.305121831478
8	6949	1.305142286304	0.307746215977
8	6962	1.307034503897	0.308394835001
8	6967	1.309130801054	0.309130801054
8	6993	1.31272522188	0.31190366556
8	7059	1.326066882206	0.324644369856
8	7077	1.329651650458	0.325583592728
8	7080	1.33	0.325683967
8	7106	1.33658487497	0.3279568926
8	7118	1.33951060981	0.32947591628
8	7122	1.33972299445	0.32540803409
8	7148	1.34322628807	0.32821784679
8	7153	1.34491439462	0.32795944789
8	7173	1.34959379587	0.32943777107
8	7182	1.35143810502	0.32988837889
8	7214	1.35823976389	0.33605997409
8	7241	1.36256136449	0.33983645187
8	7262	1.3665760569	0.34081424471
8	7288	1.37202780636	0.34360447975
8	7290	1.37213380627	0.34191356389
8	7381	1.3876745455	0.35561724849
8	7395	1.38978592404	0.35010123281
8	7398	1.3902006541	0.34892289068
8	7419	1.39456674843	0.35121474086
8	7425	1.39546958738	0.34717901286
8	7438	1.39880170487	0.34941483296
8	7450	1.40092197686	0.35128607886
8	7467	1.40229658815	0.34572965779
8	7477	1.40363003546	0.34678374081
8	7531	1.41314944779	0.34575134161
8	7542	1.41366418515	0.34244033163
8	7555	1.41748724788	0.33820585166
8	7650	1.43503920704	0.35264228172
8	7658	1.43628625804	0.34547646338
8	7667	1.43744028502	0.34490512238
8	7673	1.43917901613	0.33941437761
8	7698	1.44361183967	0.33897311141
8	7702	1.44547845755	0.33627354451
8	7706	1.44588058538	0.3342228198
8	7753	1.45630023184	0.3423557603
8	7755	1.45631130787	0.34220647583
8	7772	1.45969416931	0.34399383918
8	7840	1.47329517944	0.35128449643
8	7856	1.47833582053	0.35383329675
8	7898	1.48632623953	0.36170162311
8	7920	1.49138332841	0.35977814049
8	7948	1.49603024436	0.35502365153
8	7957	1.49704082889	0.35552346301
8	7971	1.50031220083	0.35789779235
8	7981	1.50177170476	0.35667196387
8	8014	1.50901834392	0.36102261715
8	8016	1.50952035352	0.3594199257
8	8042	1.51432120662	0.35961350076
8	8058	1.51873523891	0.35820896992
8	8061	1.51934378872	0.35651871281
8	8074	1.5217481739	0.35765930166
8	8081	1.52227092733	0.35544683583
8	8087	1.52271402499	0.35371121436
8	8124	1.52835966064	0.35495237755
8	8128	1.52927558902	0.35501180421
8	8147	1.53325843019	0.3524001851
8	8155	1.53565296759	0.35376893699
8	8163	1.53699934952	0.34608192807
8	8170	1.53850294139	0.34545355571
8	8182	1.54073018575	0.34582079685
8	8255	1.55228442447	0.35243332441
8	8257	1.55241461576	0.34832882666
8	8260	1.55276732201	0.34533767011
8	8262	1.55296530219	0.33693761172
8	8268	1.55399332762	0.33370053234
8	8284	1.55614252084	0.33141376397
8	8287	1.55632948805	0.32602458276
8	8295	1.55763313741	0.3224553496
8	8310	1.56113420208	0.32429063639
8	8321	1.56326432398	0.32238977546
8	8323	1.56341618076	0.3223301532
8	8360	1.57261900756	0.33058178009
8	8369	1.57376470151	0.33128326507
8	8378	1.57521123108	0.33058267751
8	8413	1.57974086823	0.32990250239
8	8475	1.59248733443	0.3409189016
8	8477	1.59256653271	0.33953513855
8	8513	1.60250058014	0.34821584816
8	8573	1.61170906553	0.35481601381
8	8624	1.6230510152	0.3660686333
8	8640	1.62834798835	0.37022238027
8	8649	1.63047594197	0.37065900215
8	8701	1.63934973689	0.3785642145
8	8750	1.65061927761	0.38862418122
8	8754	1.6512512245	0.38021049807
8	8769	1.65573643787	0.37644092558
8	8800	1.66221288136	0.38094037219
8	8830	1.66761973071	0.3791933608
8	8853	1.67201334078	0.382219521
8	8865	1.67424947773	0.36551847387
8	8917	1.6873203728	0.37692767268
8	8925	1.68889061273	0.37368336968
8	8928	1.68993763777	0.37390373232
8	8939	1.69148082731	0.37489156568
8	8942	1.69178346963	0.36588826918
8	8955	1.69341580927	0.36658261121
8	8959	1.6943199701	0.36728529404
8	8963	1.6945903864	0.35949645932
8	9015	1.70220081671	0.36120995295
8	9021	1.7039301895	0.3532431536
8	9023	1.70413707387	0.35280217972
8	9042	1.70648040172	0.34844059348
8	9045	1.70664435817	0.34468026292
8	9059	1.71126931928	0.34856515895
8	9082	1.71803063368	0.35157706143
8	9093	1.72074446502	0.34989533351
8	9139	1.72734370973	0.35632801098
8	9153	1.72838631646	0.35435344112
8	9157	1.728979009	0.35406804239
8	9160	1.72946581461	0.35385519944
8	9164	1.72966148849	0.35380749547
8	9190	1.734346606	0.35729922092
8	9200	1.73588523498	0.35806902146
8	9213	1.7387745516	0.36056109303
8	9218	1.74036682769	0.34514650206
8	9274	1.75528647731	0.35716780116
8	9277	1.75549892416	0.35369863826
8	9283	1.75590951758	0.35379240125
8	9290	1.75659477265	0.35216743268
8	9327	1.76143836868	0.35622591254
8	9344	1.76528252138	0.35134283432
8	9504	1.79648824948	0.37681271095
8	9531	1.80441632333	0.38037213768
8	9551	1.80853555733	0.38404971219
8	9562	1.8107947955	0.37734021062
8	9653	1.82593640598	0.39181471941
8	9683	1.83351493738	0.39876136187
8	9697	1.83666343321	0.39996081844
8	9738	1.84300400805	0.40585005957
8	9783	1.84866909523	0.40227486199
8	9870	1.86672058137	0.41966951422
8	9892	1.87001153737	0.41803067605
8	9907	1.87289016672	0.42046896081
8	9910	1.87321522616	0.41899688603
8	9933	1.87617696886	0.42148512762
8	9938	1.87680912275	0.42097622911
8	9944	1.87769179405	0.42024659053
8	9947	1.87786597149	0.41883218958
8	9955	1.87837271673	0.41496587023
8	9991	1.88418018902	0.41793398588
8	9993	1.88492098599	0.40819081022
8	10001	1.88618312163	0.40599804055
8	10008	1.887795288	0.39803649446
8	10036	1.89431589644	0.40426548355
8	10094	1.90401304769	0.40714803851
8	10110	1.9061047381	0.40630460558
8	10119	1.90761038392	0.40770045257
8	10140	1.91009209797	0.408498798
8	10147	1.91112527423	0.4024639057
8	10157	1.91323657748	0.3997924125
8	10208	1.92296736616	0.40609023366
8	10245	1.92992324445	0.41003701961
8	10265	1.93259064786	0.41037818354
8	10277	1.93408667766	0.41099812308
8	10321	1.94067176776	0.41753820063
8	10326	1.94134647167	0.41602762439
8	10369	1.94983806997	0.42309080624
8	10380	1.95163727295	0.42349864013
8	10431	1.9605408181	0.431602037
8	10470	1.965777558	0.42974340679
8	10482	1.96759513826	0.43113323297
8	10487	1.96793068302	0.42464222627
8	10493	1.96918569413	0.42548290773
8	10496	1.96951919094	0.42454310741
8	10510	1.97205180076	0.4264673439
8	10525	1.97526998306	0.42900209565
8	10528	1.97538070294	0.42723484941
8	10533	1.97668444779	0.42224688594
8	10553	1.9800407228	0.42096209814
8	10570	1.9847023278	0.4255776736
8	10625	1.9915128943	0.43181682635
8	10638	1.99333656507	0.42383088515
8	10655	1.99587483439	0.42205616185
8	10705	2.00385005018	0.42589380202
8	10710	2.00496358775	0.42538816299
8	10762	2.01617376638	0.43422531238
8	10777	2.01774735676	0.43458718786
8	10800	2.01997499413	0.43572271344
8	10815	2.02229910166	0.4379205934
8	10849	2.02810911309	0.44056547307
8	10856	2.02946727449	0.44078854173
8	10858	2.02966716459	0.43923321214
8	10876	2.03296686143	0.44209460994
8	10899	2.03767158994	0.44399484313
8	10923	2.04176863896	0.44719876667
8	10990	2.0523256358	0.45202463407
8	11002	2.05525887819	0.45337535106
8	11019	2.05791670588	0.45502875955
8	11034	2.06007252453	0.45586744675
8	11054	2.06408607	0.45795566042
8	11095	2.07176767204	0.46482677841
8	11107	2.07402544336	0.46664591128
8	11126	2.0775463967	0.46720784452
8	11135	2.0781017115	0.46746499573
8	11176	2.08369988045	0.46706482242
8	11181	2.08525542244	0.46738727716
8	11188	2.08559958693	0.46704147027
8	11190	2.08566955306	0.46449665943
8	11248	2.09607949885	0.47486055341
8	11256	2.09720052919	0.47572319293
8	11291	2.10264897729	0.47930422066
8	11309	2.10674411221	0.48255271332
8	11312	2.10708032693	0.47426870111
8	11325	2.10816510026	0.46615465207
8	11330	2.10866764699	0.4600731873
8	11334	2.10909391918	0.45290426017
8	11349	2.11142479978	0.45473170577
8	11353	2.11174596545	0.45441076109
8	11367	2.11365864917	0.45345865881
8	11370	2.11372035437	0.45087474263
8	11398	2.11772792265	0.44890697392
8	11416	2.12064043058	0.44924453043
8	11418	2.12094336117	0.44352293733
8	11422	2.12149492922	0.44026046489
8	11427	2.12218768457	0.44028373267
8	11430	2.12260373514	0.44030373522
8	11474	2.13088582665	0.44842371774
8	11498	2.13672793715	0.45331476503
8	11505	2.13713374594	0.45348884372
8	11525	2.13895939108	0.44461050216
8	11559	2.14275566417	0.44823953411
8	11580	2.14630054514	0.45077916003
8	11582	2.14663397809	0.45099235822
8	11646	2.15816597945	0.45792910654
8	11651	2.1584421689	0.45460685731
8	11661	2.15997489782	0.43979284076
8	11701	2.16741270346	0.44588777174
8	11706	2.16778519218	0.44361808103
8	11733	2.17019079387	0.44482298512
8	11755	2.17395856239	0.44373964313
8	11850	2.1903777491	0.4553195713
8	11866	2.19298891072	0.45606237915
8	11900	2.19788849842	0.45834624153
8	11906	2.19847293953	0.45609212958
8	11917	2.19965540511	0.45399089634
8	11960	2.20621276007	0.46011237237
8	11981	2.20914283133	0.45589442295
8	12009	2.21388655516	0.45789022129
8	12031	2.21748864784	0.46014010326
8	12049	2.22122004928	0.45731495872
8	12056	2.22245543539	0.45604033512
8	12116	2.23024018508	0.46044739535
8	12131	2.23197859394	0.45905144873
8	12220	2.24700218045	0.47022608913
8	12222	2.24704530267	0.46427886941
8	12315	2.26098387492	0.47821168359
8	12319	2.26150377341	0.47461396497
8	12322	2.26189776522	0.4707873051
8	12340	2.26526583257	0.47127082056
8	12352	2.26626512513	0.46595149741
8	12402	2.27415700959	0.47301763023
8	12406	2.2752704131	0.46930648772
8	12428	2.27820906104	0.47180552696
8	12435	2.27895069895	0.47248330322
8	12437	2.27936615367	0.46784876717
8	12461	2.2845589923	0.46992033582
8	12494	2.28834784803	0.471690652
8	12504	2.28952842384	0.4698151639
8	12550	2.29580584363	0.46961878445
8	12570	2.2989650687	0.46780822229
8	12591	2.30160336437	0.46964254424
8	12624	2.30782117558	0.4744038119
8	12645	2.31126023229	0.47546921754
8	12669	2.31534794659	0.47900866989
8	12674	2.31618131195	0.47450660536
8	12684	2.3175467786	0.46959965721
8	12690	2.31792594688	0.4678311915
8	12712	2.32006974457	0.46922575587
8	12725	2.32196038065	0.46958684253
8	12752	2.32667670051	0.46818214701
8	12776	2.33	0.46610760702
8	12778	2.33009894746	0.46529446194
8	12804	2.33605493987	0.47016244728
8	12812	2.33721138024	0.46305724553
8	12857	2.34468864463	0.46988229277
8	12859	2.34488153888	0.46760717488
8	12903	2.34963771166	0.46358220982
8	12916	2.35131761762	0.46175398364
8	12959	2.35798804341	0.4675885173
8	12961	2.35804277695	0.46553861428
8	12971	2.3598524375	0.46631826237
8	12973	2.35988678668	0.46447606251
8	12988	2.36140783421	0.46417616349
8	12991	2.36282349064	0.46558892663
8	12997	2.36508910704	0.46416046121
8	13028	2.36978064561	0.46190134791
8	13036	2.37154090391	0.46134512821
8	13046	2.37395870051	0.45858607408
8	13059	2.37570611873	0.45993153207
8	13067	2.37692808954	0.45988978191
8	13071	2.37749027131	0.46006705066
8	13118	2.38224670966	0.46207218287
8	13137	2.38608527419	0.4652766804
8	13142	2.38710010787	0.45997384523
8	13152	2.38821078639	0.45913145697
8	13154	2.38870693965	0.45186201936
8	13168	2.39010011889	0.44769984701
8	13176	2.39097472481	0.43516314065
8	13192	2.39607949885	0.43545673359
8	13202	2.39720052919	0.43649545481
8	13232	2.40264897729	0.44000112293
8	13254	2.40674411221	0.44293856426
8	13258	2.40708032693	0.43825444225
8	13266	2.40816510026	0.43861027736
8	13272	2.40866764699	0.43258443486
8	13277	2.40909391918	0.42946121173
8	13303	2.41204734252	0.4303486917
8	13307	2.4123725456	0.42574120485
8	13318	2.41543346344	0.4280884694
8	13320	2.41576328836	0.42672374099
8	13335	2.41772792265	0.42845877705
8	13357	2.42064043058	0.42219907358
8	13393	2.42874550897	0.42978060418
8	13423	2.43499844583	0.43499844583
8	13462	2.43982961483	0.43364719201
8	13494	2.44320836247	0.43673852901
8	13515	2.44722812681	0.44031756092
8	13517	2.44730662365	0.43641228528
8	13529	2.44984721443	0.42987841036
8	13539	2.45045861286	0.42611630099
8	13571	2.45754050541	0.42677954051
8	13588	2.46010131832	0.42414395267
8	13609	2.46443694739	0.42326932855
8	13630	2.46635373618	0.42000533959
8	13649	2.4685490872	0.42086105673
8	13671	2.47102707023	0.41077572863
8	13681	2.47191863877	0.40495229306
8	13693	2.47513418988	0.40621858424
8	13740	2.48348856233	0.41404118939
8	13753	2.4865841156	0.40856906303
8	13778	2.4903777491	0.40509387391
8	13796	2.49298891072	0.40629765374
8	13830	2.49788849842	0.4014586665
8	13837	2.49847293953	0.40039767214
8	13850	2.49965540511	0.39970067199
8	13919	2.51013670145	0.40637371502
8	13954	2.51761003703	0.4082303179
8	13959	2.51870224626	0.40652385142
8	13985	2.52287592271	0.40670632071
8	14000	2.52562708048	0.40538529183
8	14021	2.52887451243	0.40695006418
8	14040	2.53095579359	0.4086368978
8	14059	2.53317082204	0.40762872083
8	14124	2.54700218045	0.42031661556
8	14126	2.54704530267	0.40444367857
8	14221	2.56098387492	0.41706420298
8	14226	2.56150377341	0.41643207449
8	14228	2.56189776522	0.41057625085
8	14245	2.56526583257	0.41369618668
8	14255	2.56626512513	0.41281600407
8	14291	2.57415700959	0.41461544443
8	14296	2.5752704131	0.41572864806
8	14314	2.57820906104	0.41596402482
8	14321	2.57895069895	0.41494983642
8	14325	2.57936615367	0.41081240545
8	14355	2.5845589923	0.41598091562
8	14382	2.58834784803	0.41818089519
8	14389	2.58952842384	0.41670154923
8	14439	2.59580584363	0.42193480459
8	14459	2.5989650687	0.42280777884
8	14473	2.60160336437	0.42314593736
8	14507	2.60782117558	0.42710085352
8	14529	2.61126023229	0.42189166756
8	14561	2.61534794659	0.42564476224
8	14565	2.61618131195	0.4244461844
8	14571	2.6175467786	0.42274155624
8	14581	2.61792594688	0.42021725392
8	14597	2.62006974457	0.41996158331
8	14620	2.62196038065	0.42011029123
8	14649	2.62667670051	0.42460073073
8	14673	2.63	0.42629050013
8	14675	2.63009894746	0.41860250667
8	14699	2.63605493987	0.42263755476
8	14707	2.63721138024	0.42295314656
8	14756	2.64468864463	0.42805344292
8	14758	2.64488153888	0.42358455686
8	14793	2.64963771166	0.42606850651
8	14811	2.65131761762	0.42735365022
8	14856	2.65798804341	0.42363681279
8	14859	2.65804277695	0.41258661772
8	14866	2.6598524375	0.41270885181
8	14869	2.65988678668	0.40828391758
8	14876	2.66140783421	0.40947752188
8	14882	2.66282349064	0.41041525481
8	14894	2.66508910704	0.4082204238
8	14922	2.66978064561	0.40820723351
8	14937	2.67154090391	0.40883856043
8	14956	2.67395870051	0.40854644839
8	14965	2.67570611873	0.40806098798
8	14974	2.67692808954	0.4078634346
8	14978	2.67764151603	0.40401051885
8	15018	2.68224670966	0.40460145488
8	15040	2.68608527419	0.40739632621
8	15126	2.70079106951	0.41787415305
8	15142	2.70183513486	0.41451146974
8	15176	2.70791648611	0.42015750314
8	15180	2.7089769587	0.42109795019
8	15186	2.71001303491	0.41703503208
8	15193	2.7107715226	0.40732902809
8	15252	2.71874001972	0.41450991906
8	15269	2.72268393904	0.41717371351
8	15290	2.72626348133	0.41781794591