version 2
run simpleNet-0-20181120-14:07:59-7734
attr configname simpleNet
attr datetime 20181120-14:07:59
attr experiment simpleNet
attr inifile omnetpp.ini
attr iterationvars ""
attr iterationvarsf ""
attr measurement ""
attr network simpleNet
attr processid 7734
attr repetition 0
attr replication #0
attr resultdir results
attr runnumber 0
attr seedset 0

vector 0 simpleNet.node[0] numInQueue:vector ETV
attr interpolationmode none
attr source numInQueue
attr title "total num in queue, vector"
vector 1 simpleNet.node[0] numProcessed:vector ETV
attr interpolationmode none
attr source numProcessed
attr title "num processing events in statRate time, vector"
vector 2 simpleNet.node[1] numInQueue:vector ETV
attr interpolationmode none
attr source numInQueue
attr title "total num in queue, vector"
vector 3 simpleNet.node[1] numProcessed:vector ETV
attr interpolationmode none
attr source numProcessed
attr title "num processing events in statRate time, vector"
vector 4 simpleNet.node[2] numInQueue:vector ETV
attr interpolationmode none
attr source numInQueue
attr title "total num in queue, vector"
vector 5 simpleNet.node[2] numProcessed:vector ETV
attr interpolationmode none
attr source numProcessed
attr title "num processing events in statRate time, vector"
vector 6 simpleNet.node[3] numInQueue:vector ETV
attr interpolationmode none
attr source numInQueue
attr title "total num in queue, vector"
vector 7 simpleNet.node[3] numProcessed:vector ETV
attr interpolationmode none
attr source numProcessed
attr title "num processing events in statRate time, vector"
vector 8 simpleNet.node[4] numInQueue:vector ETV
attr interpolationmode none
attr source numInQueue
attr title "total num in queue, vector"
vector 9 simpleNet.node[4] numProcessed:vector ETV
attr interpolationmode none
attr source numProcessed
attr title "num processing events in statRate time, vector"
vector 10 simpleNet.node[0] completionTime:vector ETV
attr interpolationmode none
attr source completionTime
attr title "completionTime, vector"
vector 11 simpleNet.node[1] completionTime:vector ETV
attr interpolationmode none
attr source completionTime
attr title "completionTime, vector"
vector 12 simpleNet.node[2] completionTime:vector ETV
attr interpolationmode none
attr source completionTime
attr title "completionTime, vector"
vector 13 simpleNet.node[3] completionTime:vector ETV
attr interpolationmode none
attr source completionTime
attr title "completionTime, vector"
vector 14 simpleNet.node[4] completionTime:vector ETV
attr interpolationmode none
attr source completionTime
attr title "completionTime, vector"
0	3	0	1
0	43	0.5	1
0	71	1	1
0	105	1.5	1
0	133	2	1
0	167	2.5	1
0	195	3	1
0	229	3.5	1
0	257	4	1
0	291	4.5	1
0	319	5	1
0	353	5.5	1
0	381	6	1
0	415	6.5	1
0	443	7	1
0	477	7.5	1
0	505	8	1
0	539	8.5	1
0	567	9	1
0	601	9.5	1
0	621	10	1
0	626	10.5	1
1	3	0	0
1	43	0.5	3
1	71	1	1
1	105	1.5	3
1	133	2	1
1	167	2.5	3
1	195	3	1
1	229	3.5	3
1	257	4	1
1	291	4.5	3
1	319	5	1
1	353	5.5	3
1	381	6	1
1	415	6.5	3
1	443	7	1
1	477	7.5	3
1	505	8	1
1	539	8.5	3
1	567	9	1
1	601	9.5	3
1	621	10	1
1	626	10.5	0
2	5	0	1
2	44	0.5	1
2	72	1	1
2	106	1.5	1
2	134	2	1
2	168	2.5	1
2	196	3	1
2	230	3.5	1
2	258	4	1
2	292	4.5	1
2	320	5	1
2	354	5.5	1
2	382	6	1
2	416	6.5	1
2	444	7	1
2	478	7.5	1
2	506	8	1
2	540	8.5	1
2	568	9	1
2	602	9.5	1
2	622	10	1
2	627	10.5	1
3	5	0	0
3	44	0.5	3
3	72	1	1
3	106	1.5	3
3	134	2	1
3	168	2.5	3
3	196	3	1
3	230	3.5	3
3	258	4	1
3	292	4.5	3
3	320	5	1
3	354	5.5	3
3	382	6	1
3	416	6.5	3
3	444	7	1
3	478	7.5	3
3	506	8	1
3	540	8.5	3
3	568	9	1
3	602	9.5	3
3	622	10	1
3	627	10.5	0
4	8	0	1
4	45	0.5	1
4	73	1	1
4	107	1.5	1
4	135	2	1
4	169	2.5	1
4	197	3	1
4	231	3.5	1
4	259	4	1
4	293	4.5	1
4	321	5	1
4	355	5.5	1
4	383	6	1
4	417	6.5	1
4	445	7	1
4	479	7.5	1
4	507	8	1
4	541	8.5	1
4	569	9	1
4	603	9.5	1
4	623	10	1
4	628	10.5	1
5	8	0	0
5	45	0.5	4
5	73	1	3
5	107	1.5	4
5	135	2	3
5	169	2.5	4
5	197	3	3
5	231	3.5	4
5	259	4	3
5	293	4.5	4
5	321	5	3
5	355	5.5	4
5	383	6	3
5	417	6.5	4
5	445	7	3
5	479	7.5	4
5	507	8	3
5	541	8.5	4
5	569	9	3
5	603	9.5	4
5	623	10	3
5	628	10.5	0
6	11	0	1
6	46	0.5	1
6	74	1	1
6	108	1.5	1
6	136	2	1
6	170	2.5	1
6	198	3	1
6	232	3.5	1
6	260	4	1
6	294	4.5	1
6	322	5	1
6	356	5.5	1
6	384	6	1
6	418	6.5	1
6	446	7	1
6	480	7.5	1
6	508	8	1
6	542	8.5	1
6	570	9	1
6	604	9.5	1
6	624	10	1
6	629	10.5	1
7	11	0	0
7	46	0.5	3
7	74	1	3
7	108	1.5	3
7	136	2	3
7	170	2.5	3
7	198	3	3
7	232	3.5	3
7	260	4	3
7	294	4.5	3
7	322	5	3
7	356	5.5	3
7	384	6	3
7	418	6.5	3
7	446	7	3
7	480	7.5	3
7	508	8	3
7	542	8.5	3
7	570	9	3
7	604	9.5	3
7	624	10	3
7	629	10.5	0
8	13	0	1
8	47	0.5	1
8	75	1	1
8	109	1.5	1
8	137	2	1
8	171	2.5	1
8	199	3	1
8	233	3.5	1
8	261	4	1
8	295	4.5	1
8	323	5	1
8	357	5.5	1
8	385	6	1
8	419	6.5	1
8	447	7	1
8	481	7.5	1
8	509	8	1
8	543	8.5	1
8	571	9	1
8	605	9.5	1
8	625	10	1
8	630	10.5	1
9	13	0	0
9	47	0.5	3
9	75	1	2
9	109	1.5	3
9	137	2	2
9	171	2.5	3
9	199	3	2
9	233	3.5	3
9	261	4	2
9	295	4.5	3
9	323	5	2
9	357	5.5	3
9	385	6	2
9	419	6.5	3
9	447	7	2
9	481	7.5	3
9	509	8	2
9	543	8.5	3
9	571	9	2
9	605	9.5	3
9	625	10	2
9	630	10.5	0
10	22	0.06	60
10	23	0.06	60
10	84	1.06	60
10	85	1.06	60
10	146	2.06	60
10	147	2.06	60
10	208	3.06	60
10	209	3.06	60
10	270	4.06	60
10	271	4.06	60
10	332	5.06	60
10	333	5.06	60
10	394	6.06	60
10	395	6.06	60
10	456	7.06	60
10	457	7.06	60
10	518	8.06	60
10	519	8.06	60
10	580	9.06	60
10	581	9.06	60
11	24	0.06	60
11	53	0.56	60
11	86	1.06	60
11	115	1.56	60
11	148	2.06	60
11	177	2.56	60
11	210	3.06	60
11	239	3.56	60
11	272	4.06	60
11	301	4.56	60
11	334	5.06	60
11	363	5.56	60
11	396	6.06	60
11	425	6.56	60
11	458	7.06	60
11	487	7.56	60
11	520	8.06	60
11	549	8.56	60
11	582	9.06	60
11	611	9.56	60
12	25	0.06	60
12	26	0.06	60
12	54	0.56	60
12	87	1.06	60
12	88	1.06	60
12	116	1.56	60
12	149	2.06	60
12	150	2.06	60
12	178	2.56	60
12	211	3.06	60
12	212	3.06	60
12	240	3.56	60
12	273	4.06	60
12	274	4.06	60
12	302	4.56	60
12	335	5.06	60
12	336	5.06	60
12	364	5.56	60
12	397	6.06	60
12	398	6.06	60
12	426	6.56	60
12	459	7.06	60
12	460	7.06	60
12	488	7.56	60
12	521	8.06	60
12	522	8.06	60
12	550	8.56	60
12	583	9.06	60
12	584	9.06	60
12	612	9.56	60
13	27	0.06	60
13	28	0.06	60
13	55	0.56	60
13	56	0.56	60
13	89	1.06	60
13	90	1.06	60
13	117	1.56	60
13	118	1.56	60
13	151	2.06	60
13	152	2.06	60
13	179	2.56	60
13	180	2.56	60
13	213	3.06	60
13	214	3.06	60
13	241	3.56	60
13	242	3.56	60
13	275	4.06	60
13	276	4.06	60
13	303	4.56	60
13	304	4.56	60
13	337	5.06	60
13	338	5.06	60
13	365	5.56	60
13	366	5.56	60
13	399	6.06	60
13	400	6.06	60
13	427	6.56	60
13	428	6.56	60
13	461	7.06	60
13	462	7.06	60
13	489	7.56	60
13	490	7.56	60
13	523	8.06	60
13	524	8.06	60
13	551	8.56	60
13	552	8.56	60
13	585	9.06	60
13	586	9.06	60
13	613	9.56	60
13	614	9.56	60
14	29	0.06	60
14	57	0.56	60
14	91	1.06	60
14	119	1.56	60
14	153	2.06	60
14	181	2.56	60
14	215	3.06	60
14	243	3.56	60
14	277	4.06	60
14	305	4.56	60
14	339	5.06	60
14	367	5.56	60
14	401	6.06	60
14	429	6.56	60
14	463	7.06	60
14	491	7.56	60
14	525	8.06	60
14	553	8.56	60
14	587	9.06	60
14	615	9.56	60

