version 2
run simpleNet-0-20181120-20:38:40-14836
attr configname simpleNet
attr datetime 20181120-20:38:40
attr experiment simpleNet
attr inifile omnetpp.ini
attr iterationvars ""
attr iterationvarsf ""
attr measurement ""
attr network simpleNet
attr processid 14836
attr repetition 0
attr replication #0
attr resultdir results
attr runnumber 0
attr seedset 0

vector 0 simpleNet.node[0] "numAttemptedPerDest_Total(dest node 4):vector" ETV
vector 1 simpleNet.node[0] "numAttemptedPerDest_Total(dest node 1):vector" ETV
vector 2 simpleNet.node[0] "numInQueuePerChannel(node 1):vector" ETV
vector 3 simpleNet.node[0] "numInQueuePerChannel(node 3):vector" ETV
vector 4 simpleNet.node[0] "numInQueuePerChannel(node 4):vector" ETV
vector 5 simpleNet.node[0] "numProcessedPerChannel(node 0):vector" ETV
vector 6 simpleNet.node[0] "numProcessedPerChannel(node 1):vector" ETV
vector 7 simpleNet.node[0] "numProcessedPerChannel(node 2):vector" ETV
vector 8 simpleNet.node[0] "numProcessedPerChannel(node 3):vector" ETV
vector 9 simpleNet.node[0] "numProcessedPerChannel(node 4):vector" ETV
vector 10 simpleNet.node[1] "numAttemptedPerDest_Total(dest node 3):vector" ETV
vector 11 simpleNet.node[1] "numInQueuePerChannel(node 0):vector" ETV
vector 12 simpleNet.node[1] "numInQueuePerChannel(node 2):vector" ETV
vector 13 simpleNet.node[1] "numInQueuePerChannel(node 3):vector" ETV
vector 14 simpleNet.node[1] "numProcessedPerChannel(node 0):vector" ETV
vector 15 simpleNet.node[1] "numProcessedPerChannel(node 1):vector" ETV
vector 16 simpleNet.node[1] "numProcessedPerChannel(node 2):vector" ETV
vector 17 simpleNet.node[1] "numProcessedPerChannel(node 3):vector" ETV
vector 18 simpleNet.node[1] "numProcessedPerChannel(node 4):vector" ETV
vector 19 simpleNet.node[2] "numAttemptedPerDest_Total(dest node 1):vector" ETV
vector 20 simpleNet.node[2] "numAttemptedPerDest_Total(dest node 4):vector" ETV
vector 21 simpleNet.node[2] "numInQueuePerChannel(node 1):vector" ETV
vector 22 simpleNet.node[2] "numInQueuePerChannel(node 3):vector" ETV
vector 23 simpleNet.node[2] "numInQueuePerChannel(node 4):vector" ETV
vector 24 simpleNet.node[2] "numProcessedPerChannel(node 0):vector" ETV
vector 25 simpleNet.node[2] "numProcessedPerChannel(node 1):vector" ETV
vector 26 simpleNet.node[2] "numProcessedPerChannel(node 2):vector" ETV
vector 27 simpleNet.node[2] "numProcessedPerChannel(node 3):vector" ETV
vector 28 simpleNet.node[2] "numProcessedPerChannel(node 4):vector" ETV
vector 29 simpleNet.node[3] "numAttemptedPerDest_Total(dest node 0):vector" ETV
vector 30 simpleNet.node[3] "numAttemptedPerDest_Total(dest node 2):vector" ETV
vector 31 simpleNet.node[3] "numInQueuePerChannel(node 0):vector" ETV
vector 32 simpleNet.node[3] "numInQueuePerChannel(node 1):vector" ETV
vector 33 simpleNet.node[3] "numInQueuePerChannel(node 2):vector" ETV
vector 34 simpleNet.node[3] "numProcessedPerChannel(node 0):vector" ETV
vector 35 simpleNet.node[3] "numProcessedPerChannel(node 1):vector" ETV
vector 36 simpleNet.node[3] "numProcessedPerChannel(node 2):vector" ETV
vector 37 simpleNet.node[3] "numProcessedPerChannel(node 3):vector" ETV
vector 38 simpleNet.node[3] "numProcessedPerChannel(node 4):vector" ETV
vector 39 simpleNet.node[4] "numAttemptedPerDest_Total(dest node 2):vector" ETV
vector 40 simpleNet.node[4] "numInQueuePerChannel(node 0):vector" ETV
vector 41 simpleNet.node[4] "numInQueuePerChannel(node 2):vector" ETV
vector 42 simpleNet.node[4] "numProcessedPerChannel(node 0):vector" ETV
vector 43 simpleNet.node[4] "numProcessedPerChannel(node 1):vector" ETV
vector 44 simpleNet.node[4] "numProcessedPerChannel(node 2):vector" ETV
vector 45 simpleNet.node[4] "numProcessedPerChannel(node 3):vector" ETV
vector 46 simpleNet.node[4] "numProcessedPerChannel(node 4):vector" ETV
vector 47 simpleNet.node[0] "numCompletedPerDest_Total(dest node 4):vector" ETV
vector 48 simpleNet.node[0] "numCompletedPerDest_Total(dest node 1):vector" ETV
vector 49 simpleNet.node[1] "numCompletedPerDest_Total(dest node 3):vector" ETV
vector 50 simpleNet.node[2] "numCompletedPerDest_Total(dest node 1):vector" ETV
vector 51 simpleNet.node[2] "numCompletedPerDest_Total(dest node 4):vector" ETV
vector 52 simpleNet.node[3] "numCompletedPerDest_Total(dest node 0):vector" ETV
vector 53 simpleNet.node[3] "numCompletedPerDest_Total(dest node 2):vector" ETV
vector 54 simpleNet.node[4] "numCompletedPerDest_Total(dest node 2):vector" ETV
0	1	0	1
0	19	0.02	2
0	40	0.04	3
0	66	0.06	4
0	105	0.08	5
0	152	0.1	6
0	204	0.12	7
0	256	0.14	8
0	308	0.16	9
0	360	0.18	10
0	412	0.2	11
0	464	0.22	12
0	516	0.24	13
0	568	0.26	14
0	620	0.28	15
0	672	0.3	16
0	724	0.32	17
0	776	0.34	18
0	828	0.36	19
0	880	0.38	20
0	932	0.4	21
0	984	0.42	22
0	1036	0.44	23
0	1088	0.46	24
0	1140	0.48	25
0	1192	0.5	26
0	1249	0.52	27
0	1301	0.54	28
0	1353	0.56	29
0	1405	0.58	30
0	1457	0.6	31
0	1509	0.62	32
0	1561	0.64	33
0	1613	0.66	34
0	1665	0.68	35
0	1717	0.7	36
0	1769	0.72	37
0	1821	0.74	38
0	1873	0.76	39
0	1925	0.78	40
0	1977	0.8	41
0	2029	0.82	42
0	2081	0.84	43
0	2133	0.86	44
0	2185	0.88	45
0	2237	0.9	46
0	2289	0.92	47
0	2341	0.94	48
0	2393	0.96	49
0	2445	0.98	50
0	2497	1	51
0	2554	1.02	52
0	2603	1.04	53
0	2649	1.06	54
0	2689	1.08	55
0	2726	1.1	56
0	2760	1.12	57
0	2794	1.14	58
0	2828	1.16	59
0	2862	1.18	60
0	2896	1.2	61
0	2930	1.22	62
0	2964	1.24	63
0	2998	1.26	64
0	3032	1.28	65
0	3066	1.3	66
0	3100	1.32	67
0	3134	1.34	68
0	3168	1.36	69
0	3202	1.38	70
0	3236	1.4	71
0	3270	1.42	72
0	3304	1.44	73
0	3338	1.46	74
0	3372	1.48	75
0	3406	1.5	76
0	3445	1.52	77
0	3479	1.54	78
0	3513	1.56	79
0	3547	1.58	80
0	3581	1.6	81
0	3615	1.62	82
0	3649	1.64	83
0	3683	1.66	84
0	3717	1.68	85
0	3751	1.7	86
0	3785	1.72	87
0	3819	1.74	88
0	3853	1.76	89
0	3887	1.78	90
0	3921	1.8	91
0	3955	1.82	92
0	3989	1.84	93
0	4023	1.86	94
0	4057	1.88	95
0	4091	1.9	96
0	4125	1.92	97
0	4159	1.94	98
0	4193	1.96	99
0	4227	1.98	100
0	4261	2	101
0	4300	2.02	102
0	4331	2.04	103
0	4362	2.06	104
0	4390	2.08	105
0	4415	2.1	106
0	4440	2.12	107
0	4465	2.14	108
0	4490	2.16	109
0	4515	2.18	110
0	4540	2.2	111
0	4565	2.22	112
0	4590	2.24	113
0	4615	2.26	114
0	4640	2.28	115
0	4665	2.3	116
0	4690	2.32	117
0	4715	2.34	118
0	4740	2.36	119
0	4765	2.38	120
0	4790	2.4	121
0	4815	2.42	122
0	4840	2.44	123
0	4865	2.46	124
0	4890	2.48	125
0	4915	2.5	126
0	4945	2.52	127
0	4970	2.54	128
0	4995	2.56	129
0	5020	2.58	130
0	5045	2.6	131
0	5070	2.62	132
0	5095	2.64	133
0	5120	2.66	134
0	5145	2.68	135
0	5170	2.7	136
0	5195	2.72	137
0	5220	2.74	138
0	5245	2.76	139
0	5270	2.78	140
0	5295	2.8	141
0	5320	2.82	142
0	5345	2.84	143
0	5370	2.86	144
0	5395	2.88	145
0	5420	2.9	146
0	5445	2.92	147
0	5470	2.94	148
0	5495	2.96	149
0	5520	2.98	150
0	5545	3	151
0	5575	3.02	152
0	5600	3.04	153
0	5625	3.06	154
0	5650	3.08	155
0	5675	3.1	156
0	5700	3.12	157
0	5725	3.14	158
0	5750	3.16	159
0	5775	3.18	160
0	5800	3.2	161
0	5825	3.22	162
0	5850	3.24	163
0	5875	3.26	164
0	5900	3.28	165
0	5925	3.3	166
0	5950	3.32	167
0	5975	3.34	168
0	6000	3.36	169
0	6025	3.38	170
0	6050	3.4	171
0	6075	3.42	172
0	6100	3.44	173
0	6125	3.46	174
0	6150	3.48	175
0	6175	3.5	176
0	6205	3.52	177
0	6230	3.54	178
0	6255	3.56	179
0	6280	3.58	180
0	6305	3.6	181
0	6330	3.62	182
0	6355	3.64	183
0	6380	3.66	184
0	6405	3.68	185
0	6430	3.7	186
0	6455	3.72	187
0	6480	3.74	188
0	6505	3.76	189
0	6530	3.78	190
0	6555	3.8	191
0	6580	3.82	192
0	6605	3.84	193
0	6630	3.86	194
0	6655	3.88	195
0	6680	3.9	196
0	6705	3.92	197
0	6730	3.94	198
0	6755	3.96	199
0	6780	3.98	200
0	6805	4	201
0	6835	4.02	202
0	6860	4.04	203
0	6885	4.06	204
0	6910	4.08	205
0	6935	4.1	206
0	6960	4.12	207
0	6985	4.14	208
0	7010	4.16	209
0	7035	4.18	210
0	7060	4.2	211
0	7085	4.22	212
0	7110	4.24	213
0	7135	4.26	214
0	7160	4.28	215
0	7185	4.3	216
0	7210	4.32	217
0	7235	4.34	218
0	7260	4.36	219
0	7285	4.38	220
0	7310	4.4	221
0	7335	4.42	222
0	7360	4.44	223
0	7385	4.46	224
0	7410	4.48	225
0	7435	4.5	226
0	7465	4.52	227
0	7490	4.54	228
0	7515	4.56	229
0	7540	4.58	230
0	7565	4.6	231
0	7590	4.62	232
0	7615	4.64	233
0	7640	4.66	234
0	7665	4.68	235
0	7690	4.7	236
0	7715	4.72	237
0	7740	4.74	238
0	7765	4.76	239
0	7790	4.78	240
0	7815	4.8	241
0	7840	4.82	242
0	7865	4.84	243
0	7890	4.86	244
0	7915	4.88	245
0	7940	4.9	246
0	7965	4.92	247
0	7990	4.94	248
0	8015	4.96	249
0	8040	4.98	250
0	8065	5	251
0	8095	5.02	252
0	8120	5.04	253
0	8145	5.06	254
0	8170	5.08	255
0	8195	5.1	256
0	8220	5.12	257
0	8245	5.14	258
0	8270	5.16	259
0	8295	5.18	260
0	8320	5.2	261
0	8345	5.22	262
0	8370	5.24	263
0	8395	5.26	264
0	8420	5.28	265
0	8445	5.3	266
0	8470	5.32	267
0	8495	5.34	268
0	8520	5.36	269
0	8545	5.38	270
0	8570	5.4	271
0	8595	5.42	272
0	8620	5.44	273
0	8645	5.46	274
0	8670	5.48	275
0	8695	5.5	276
0	8725	5.52	277
0	8750	5.54	278
0	8775	5.56	279
0	8800	5.58	280
0	8825	5.6	281
0	8850	5.62	282
0	8875	5.64	283
0	8900	5.66	284
0	8925	5.68	285
0	8950	5.7	286
0	8975	5.72	287
0	9000	5.74	288
0	9025	5.76	289
0	9050	5.78	290
0	9075	5.8	291
0	9100	5.82	292
0	9125	5.84	293
0	9150	5.86	294
0	9175	5.88	295
0	9200	5.9	296
0	9225	5.92	297
0	9250	5.94	298
0	9275	5.96	299
0	9300	5.98	300
0	9325	6	301
0	9355	6.02	302
0	9380	6.04	303
0	9405	6.06	304
0	9430	6.08	305
0	9455	6.1	306
0	9480	6.12	307
0	9505	6.14	308
0	9530	6.16	309
0	9555	6.18	310
0	9580	6.2	311
0	9605	6.22	312
0	9630	6.24	313
0	9655	6.26	314
0	9680	6.28	315
0	9705	6.3	316
0	9730	6.32	317
0	9755	6.34	318
0	9780	6.36	319
0	9805	6.38	320
0	9830	6.4	321
0	9855	6.42	322
0	9880	6.44	323
0	9905	6.46	324
0	9930	6.48	325
0	9955	6.5	326
0	9985	6.52	327
0	10010	6.54	328
0	10035	6.56	329
0	10060	6.58	330
0	10085	6.6	331
0	10110	6.62	332
0	10135	6.64	333
0	10160	6.66	334
0	10185	6.68	335
0	10210	6.7	336
0	10235	6.72	337
0	10260	6.74	338
0	10285	6.76	339
0	10310	6.78	340
0	10335	6.8	341
0	10360	6.82	342
0	10385	6.84	343
0	10410	6.86	344
0	10435	6.88	345
0	10460	6.9	346
0	10485	6.92	347
0	10510	6.94	348
0	10535	6.96	349
0	10560	6.98	350
0	10585	7	351
0	10615	7.02	352
0	10640	7.04	353
0	10665	7.06	354
0	10690	7.08	355
0	10715	7.1	356
0	10740	7.12	357
0	10765	7.14	358
0	10790	7.16	359
0	10815	7.18	360
0	10840	7.2	361
0	10865	7.22	362
0	10890	7.24	363
0	10915	7.26	364
0	10940	7.28	365
0	10965	7.3	366
0	10990	7.32	367
0	11015	7.34	368
0	11040	7.36	369
0	11065	7.38	370
0	11090	7.4	371
0	11115	7.42	372
0	11140	7.44	373
0	11165	7.46	374
0	11190	7.48	375
0	11215	7.5	376
0	11245	7.52	377
0	11270	7.54	378
0	11295	7.56	379
0	11320	7.58	380
0	11345	7.6	381
0	11370	7.62	382
0	11395	7.64	383
0	11420	7.66	384
0	11445	7.68	385
0	11470	7.7	386
0	11495	7.72	387
0	11520	7.74	388
0	11545	7.76	389
0	11570	7.78	390
0	11595	7.8	391
0	11620	7.82	392
0	11645	7.84	393
0	11670	7.86	394
0	11695	7.88	395
0	11720	7.9	396
0	11745	7.92	397
0	11770	7.94	398
0	11795	7.96	399
0	11820	7.98	400
0	11845	8	401
0	11875	8.02	402
0	11900	8.04	403
0	11925	8.06	404
0	11950	8.08	405
0	11975	8.1	406
0	12000	8.12	407
0	12025	8.14	408
0	12050	8.16	409
0	12075	8.18	410
0	12100	8.2	411
0	12125	8.22	412
0	12150	8.24	413
0	12175	8.26	414
0	12200	8.28	415
0	12225	8.3	416
0	12250	8.32	417
0	12275	8.34	418
0	12300	8.36	419
0	12325	8.38	420
0	12350	8.4	421
0	12375	8.42	422
0	12400	8.44	423
0	12425	8.46	424
0	12450	8.48	425
0	12475	8.5	426
0	12505	8.52	427
0	12530	8.54	428
0	12555	8.56	429
0	12580	8.58	430
0	12605	8.6	431
0	12630	8.62	432
0	12655	8.64	433
0	12680	8.66	434
0	12705	8.68	435
0	12730	8.7	436
0	12755	8.72	437
0	12780	8.74	438
0	12805	8.76	439
0	12830	8.78	440
0	12855	8.8	441
0	12880	8.82	442
0	12905	8.84	443
0	12930	8.86	444
0	12955	8.88	445
0	12980	8.9	446
0	13005	8.92	447
0	13030	8.94	448
0	13055	8.96	449
0	13080	8.98	450
0	13105	9	451
0	13135	9.02	452
0	13160	9.04	453
0	13185	9.06	454
0	13210	9.08	455
0	13235	9.1	456
0	13260	9.12	457
0	13285	9.14	458
0	13310	9.16	459
0	13335	9.18	460
0	13360	9.2	461
0	13385	9.22	462
0	13410	9.24	463
0	13435	9.26	464
0	13460	9.28	465
0	13485	9.3	466
0	13510	9.32	467
0	13535	9.34	468
0	13560	9.36	469
0	13585	9.38	470
0	13610	9.4	471
0	13635	9.42	472
0	13660	9.44	473
0	13685	9.46	474
0	13710	9.48	475
0	13735	9.5	476
0	13765	9.52	477
0	13790	9.54	478
0	13815	9.56	479
0	13840	9.58	480
0	13865	9.6	481
0	13890	9.62	482
0	13915	9.64	483
0	13940	9.66	484
0	13965	9.68	485
0	13990	9.7	486
0	14015	9.72	487
0	14040	9.74	488
0	14065	9.76	489
0	14090	9.78	490
0	14115	9.8	491
0	14140	9.82	492
0	14165	9.84	493
0	14190	9.86	494
0	14215	9.88	495
0	14240	9.9	496
0	14265	9.92	497
0	14290	9.94	498
0	14315	9.96	499
0	14340	9.98	500
1	2	0	1
1	20	0.02	2
1	41	0.04	3
1	67	0.06	4
1	106	0.08	5
1	153	0.1	6
1	205	0.12	7
1	257	0.14	8
1	309	0.16	9
1	361	0.18	10
1	413	0.2	11
1	465	0.22	12
1	517	0.24	13
1	569	0.26	14
1	621	0.28	15
1	673	0.3	16
1	725	0.32	17
1	777	0.34	18
1	829	0.36	19
1	881	0.38	20
1	933	0.4	21
1	985	0.42	22
1	1037	0.44	23
1	1089	0.46	24
1	1141	0.48	25
1	1193	0.5	26
1	1250	0.52	27
1	1302	0.54	28
1	1354	0.56	29
1	1406	0.58	30
1	1458	0.6	31
1	1510	0.62	32
1	1562	0.64	33
1	1614	0.66	34
1	1666	0.68	35
1	1718	0.7	36
1	1770	0.72	37
1	1822	0.74	38
1	1874	0.76	39
1	1926	0.78	40
1	1978	0.8	41
1	2030	0.82	42
1	2082	0.84	43
1	2134	0.86	44
1	2186	0.88	45
1	2238	0.9	46
1	2290	0.92	47
1	2342	0.94	48
1	2394	0.96	49
1	2446	0.98	50
1	2498	1	51
1	2555	1.02	52
1	2604	1.04	53
1	2650	1.06	54
1	2690	1.08	55
1	2727	1.1	56
1	2761	1.12	57
1	2795	1.14	58
1	2829	1.16	59
1	2863	1.18	60
1	2897	1.2	61
1	2931	1.22	62
1	2965	1.24	63
1	2999	1.26	64
1	3033	1.28	65
1	3067	1.3	66
1	3101	1.32	67
1	3135	1.34	68
1	3169	1.36	69
1	3203	1.38	70
1	3237	1.4	71
1	3271	1.42	72
1	3305	1.44	73
1	3339	1.46	74
1	3373	1.48	75
1	3407	1.5	76
1	3446	1.52	77
1	3480	1.54	78
1	3514	1.56	79
1	3548	1.58	80
1	3582	1.6	81
1	3616	1.62	82
1	3650	1.64	83
1	3684	1.66	84
1	3718	1.68	85
1	3752	1.7	86
1	3786	1.72	87
1	3820	1.74	88
1	3854	1.76	89
1	3888	1.78	90
1	3922	1.8	91
1	3956	1.82	92
1	3990	1.84	93
1	4024	1.86	94
1	4058	1.88	95
1	4092	1.9	96
1	4126	1.92	97
1	4160	1.94	98
1	4194	1.96	99
1	4228	1.98	100
1	4262	2	101
1	4301	2.02	102
1	4332	2.04	103
1	4363	2.06	104
1	4391	2.08	105
1	4416	2.1	106
1	4441	2.12	107
1	4466	2.14	108
1	4491	2.16	109
1	4516	2.18	110
1	4541	2.2	111
1	4566	2.22	112
1	4591	2.24	113
1	4616	2.26	114
1	4641	2.28	115
1	4666	2.3	116
1	4691	2.32	117
1	4716	2.34	118
1	4741	2.36	119
1	4766	2.38	120
1	4791	2.4	121
1	4816	2.42	122
1	4841	2.44	123
1	4866	2.46	124
1	4891	2.48	125
1	4916	2.5	126
1	4946	2.52	127
1	4971	2.54	128
1	4996	2.56	129
1	5021	2.58	130
1	5046	2.6	131
1	5071	2.62	132
1	5096	2.64	133
1	5121	2.66	134
1	5146	2.68	135
1	5171	2.7	136
1	5196	2.72	137
1	5221	2.74	138
1	5246	2.76	139
1	5271	2.78	140
1	5296	2.8	141
1	5321	2.82	142
1	5346	2.84	143
1	5371	2.86	144
1	5396	2.88	145
1	5421	2.9	146
1	5446	2.92	147
1	5471	2.94	148
1	5496	2.96	149
1	5521	2.98	150
1	5546	3	151
1	5576	3.02	152
1	5601	3.04	153
1	5626	3.06	154
1	5651	3.08	155
1	5676	3.1	156
1	5701	3.12	157
1	5726	3.14	158
1	5751	3.16	159
1	5776	3.18	160
1	5801	3.2	161
1	5826	3.22	162
1	5851	3.24	163
1	5876	3.26	164
1	5901	3.28	165
1	5926	3.3	166
1	5951	3.32	167
1	5976	3.34	168
1	6001	3.36	169
1	6026	3.38	170
1	6051	3.4	171
1	6076	3.42	172
1	6101	3.44	173
1	6126	3.46	174
1	6151	3.48	175
1	6176	3.5	176
1	6206	3.52	177
1	6231	3.54	178
1	6256	3.56	179
1	6281	3.58	180
1	6306	3.6	181
1	6331	3.62	182
1	6356	3.64	183
1	6381	3.66	184
1	6406	3.68	185
1	6431	3.7	186
1	6456	3.72	187
1	6481	3.74	188
1	6506	3.76	189
1	6531	3.78	190
1	6556	3.8	191
1	6581	3.82	192
1	6606	3.84	193
1	6631	3.86	194
1	6656	3.88	195
1	6681	3.9	196
1	6706	3.92	197
1	6731	3.94	198
1	6756	3.96	199
1	6781	3.98	200
1	6806	4	201
1	6836	4.02	202
1	6861	4.04	203
1	6886	4.06	204
1	6911	4.08	205
1	6936	4.1	206
1	6961	4.12	207
1	6986	4.14	208
1	7011	4.16	209
1	7036	4.18	210
1	7061	4.2	211
1	7086	4.22	212
1	7111	4.24	213
1	7136	4.26	214
1	7161	4.28	215
1	7186	4.3	216
1	7211	4.32	217
1	7236	4.34	218
1	7261	4.36	219
1	7286	4.38	220
1	7311	4.4	221
1	7336	4.42	222
1	7361	4.44	223
1	7386	4.46	224
1	7411	4.48	225
1	7436	4.5	226
1	7466	4.52	227
1	7491	4.54	228
1	7516	4.56	229
1	7541	4.58	230
1	7566	4.6	231
1	7591	4.62	232
1	7616	4.64	233
1	7641	4.66	234
1	7666	4.68	235
1	7691	4.7	236
1	7716	4.72	237
1	7741	4.74	238
1	7766	4.76	239
1	7791	4.78	240
1	7816	4.8	241
1	7841	4.82	242
1	7866	4.84	243
1	7891	4.86	244
1	7916	4.88	245
1	7941	4.9	246
1	7966	4.92	247
1	7991	4.94	248
1	8016	4.96	249
1	8041	4.98	250
1	8066	5	251
1	8096	5.02	252
1	8121	5.04	253
1	8146	5.06	254
1	8171	5.08	255
1	8196	5.1	256
1	8221	5.12	257
1	8246	5.14	258
1	8271	5.16	259
1	8296	5.18	260
1	8321	5.2	261
1	8346	5.22	262
1	8371	5.24	263
1	8396	5.26	264
1	8421	5.28	265
1	8446	5.3	266
1	8471	5.32	267
1	8496	5.34	268
1	8521	5.36	269
1	8546	5.38	270
1	8571	5.4	271
1	8596	5.42	272
1	8621	5.44	273
1	8646	5.46	274
1	8671	5.48	275
1	8696	5.5	276
1	8726	5.52	277
1	8751	5.54	278
1	8776	5.56	279
1	8801	5.58	280
1	8826	5.6	281
1	8851	5.62	282
1	8876	5.64	283
1	8901	5.66	284
1	8926	5.68	285
1	8951	5.7	286
1	8976	5.72	287
1	9001	5.74	288
1	9026	5.76	289
1	9051	5.78	290
1	9076	5.8	291
1	9101	5.82	292
1	9126	5.84	293
1	9151	5.86	294
1	9176	5.88	295
1	9201	5.9	296
1	9226	5.92	297
1	9251	5.94	298
1	9276	5.96	299
1	9301	5.98	300
1	9326	6	301
1	9356	6.02	302
1	9381	6.04	303
1	9406	6.06	304
1	9431	6.08	305
1	9456	6.1	306
1	9481	6.12	307
1	9506	6.14	308
1	9531	6.16	309
1	9556	6.18	310
1	9581	6.2	311
1	9606	6.22	312
1	9631	6.24	313
1	9656	6.26	314
1	9681	6.28	315
1	9706	6.3	316
1	9731	6.32	317
1	9756	6.34	318
1	9781	6.36	319
1	9806	6.38	320
1	9831	6.4	321
1	9856	6.42	322
1	9881	6.44	323
1	9906	6.46	324
1	9931	6.48	325
1	9956	6.5	326
1	9986	6.52	327
1	10011	6.54	328
1	10036	6.56	329
1	10061	6.58	330
1	10086	6.6	331
1	10111	6.62	332
1	10136	6.64	333
1	10161	6.66	334
1	10186	6.68	335
1	10211	6.7	336
1	10236	6.72	337
1	10261	6.74	338
1	10286	6.76	339
1	10311	6.78	340
1	10336	6.8	341
1	10361	6.82	342
1	10386	6.84	343
1	10411	6.86	344
1	10436	6.88	345
1	10461	6.9	346
1	10486	6.92	347
1	10511	6.94	348
1	10536	6.96	349
1	10561	6.98	350
1	10586	7	351
1	10616	7.02	352
1	10641	7.04	353
1	10666	7.06	354
1	10691	7.08	355
1	10716	7.1	356
1	10741	7.12	357
1	10766	7.14	358
1	10791	7.16	359
1	10816	7.18	360
1	10841	7.2	361
1	10866	7.22	362
1	10891	7.24	363
1	10916	7.26	364
1	10941	7.28	365
1	10966	7.3	366
1	10991	7.32	367
1	11016	7.34	368
1	11041	7.36	369
1	11066	7.38	370
1	11091	7.4	371
1	11116	7.42	372
1	11141	7.44	373
1	11166	7.46	374
1	11191	7.48	375
1	11216	7.5	376
1	11246	7.52	377
1	11271	7.54	378
1	11296	7.56	379
1	11321	7.58	380
1	11346	7.6	381
1	11371	7.62	382
1	11396	7.64	383
1	11421	7.66	384
1	11446	7.68	385
1	11471	7.7	386
1	11496	7.72	387
1	11521	7.74	388
1	11546	7.76	389
1	11571	7.78	390
1	11596	7.8	391
1	11621	7.82	392
1	11646	7.84	393
1	11671	7.86	394
1	11696	7.88	395
1	11721	7.9	396
1	11746	7.92	397
1	11771	7.94	398
1	11796	7.96	399
1	11821	7.98	400
1	11846	8	401
1	11876	8.02	402
1	11901	8.04	403
1	11926	8.06	404
1	11951	8.08	405
1	11976	8.1	406
1	12001	8.12	407
1	12026	8.14	408
1	12051	8.16	409
1	12076	8.18	410
1	12101	8.2	411
1	12126	8.22	412
1	12151	8.24	413
1	12176	8.26	414
1	12201	8.28	415
1	12226	8.3	416
1	12251	8.32	417
1	12276	8.34	418
1	12301	8.36	419
1	12326	8.38	420
1	12351	8.4	421
1	12376	8.42	422
1	12401	8.44	423
1	12426	8.46	424
1	12451	8.48	425
1	12476	8.5	426
1	12506	8.52	427
1	12531	8.54	428
1	12556	8.56	429
1	12581	8.58	430
1	12606	8.6	431
1	12631	8.62	432
1	12656	8.64	433
1	12681	8.66	434
1	12706	8.68	435
1	12731	8.7	436
1	12756	8.72	437
1	12781	8.74	438
1	12806	8.76	439
1	12831	8.78	440
1	12856	8.8	441
1	12881	8.82	442
1	12906	8.84	443
1	12931	8.86	444
1	12956	8.88	445
1	12981	8.9	446
1	13006	8.92	447
1	13031	8.94	448
1	13056	8.96	449
1	13081	8.98	450
1	13106	9	451
1	13136	9.02	452
1	13161	9.04	453
1	13186	9.06	454
1	13211	9.08	455
1	13236	9.1	456
1	13261	9.12	457
1	13286	9.14	458
1	13311	9.16	459
1	13336	9.18	460
1	13361	9.2	461
1	13386	9.22	462
1	13411	9.24	463
1	13436	9.26	464
1	13461	9.28	465
1	13486	9.3	466
1	13511	9.32	467
1	13536	9.34	468
1	13561	9.36	469
1	13586	9.38	470
1	13611	9.4	471
1	13636	9.42	472
1	13661	9.44	473
1	13686	9.46	474
1	13711	9.48	475
1	13736	9.5	476
1	13766	9.52	477
1	13791	9.54	478
1	13816	9.56	479
1	13841	9.58	480
1	13866	9.6	481
1	13891	9.62	482
1	13916	9.64	483
1	13941	9.66	484
1	13966	9.68	485
1	13991	9.7	486
1	14016	9.72	487
1	14041	9.74	488
1	14066	9.76	489
1	14091	9.78	490
1	14116	9.8	491
1	14141	9.82	492
1	14166	9.84	493
1	14191	9.86	494
1	14216	9.88	495
1	14241	9.9	496
1	14266	9.92	497
1	14291	9.94	498
1	14316	9.96	499
1	14341	9.98	500
2	3	0	0
2	1200	0.5	0
2	2505	1	0
2	3414	1.5	0
2	4269	2	1
2	4923	2.5	26
2	5553	3	51
2	6183	3.5	76
2	6813	4	101
2	7443	4.5	126
2	8073	5	151
2	8703	5.5	176
2	9333	6	201
2	9963	6.5	226
2	10593	7	251
2	11223	7.5	276
2	11853	8	301
2	12483	8.5	326
2	13113	9	351
2	13743	9.5	376
2	14365	10	400
2	14406	10.5	400
3	3	0	0
3	1200	0.5	0
3	2505	1	0
3	3414	1.5	0
3	4269	2	0
3	4923	2.5	0
3	5553	3	0
3	6183	3.5	0
3	6813	4	0
3	7443	4.5	0
3	8073	5	0
3	8703	5.5	0
3	9333	6	0
3	9963	6.5	0
3	10593	7	0
3	11223	7.5	0
3	11853	8	0
3	12483	8.5	0
3	13113	9	0
3	13743	9.5	0
3	14365	10	0
3	14406	10.5	0
4	3	0	0
4	1200	0.5	0
4	2505	1	0
4	3414	1.5	0
4	4269	2	1
4	4923	2.5	26
4	5553	3	51
4	6183	3.5	76
4	6813	4	101
4	7443	4.5	126
4	8073	5	151
4	8703	5.5	176
4	9333	6	201
4	9963	6.5	226
4	10593	7	251
4	11223	7.5	276
4	11853	8	301
4	12483	8.5	326
4	13113	9	351
4	13743	9.5	376
4	14365	10	400
4	14406	10.5	400
5	3	0	0
5	1200	0.5	0
5	2505	1	0
5	3414	1.5	0
5	4269	2	0
5	4923	2.5	0
5	5553	3	0
5	6183	3.5	0
5	6813	4	0
5	7443	4.5	0
5	8073	5	0
5	8703	5.5	0
5	9333	6	0
5	9963	6.5	0
5	10593	7	0
5	11223	7.5	0
5	11853	8	0
5	12483	8.5	0
5	13113	9	0
5	13743	9.5	0
5	14365	10	0
5	14406	10.5	0
6	3	0	0
6	1200	0.5	22
6	2505	1	25
6	3414	1.5	25
6	4269	2	25
6	4923	2.5	3
6	5553	3	0
6	6183	3.5	0
6	6813	4	0
6	7443	4.5	0
6	8073	5	0
6	8703	5.5	0
6	9333	6	0
6	9963	6.5	0
6	10593	7	0
6	11223	7.5	0
6	11853	8	0
6	12483	8.5	0
6	13113	9	0
6	13743	9.5	0
6	14365	10	0
6	14406	10.5	0
7	3	0	0
7	1200	0.5	0
7	2505	1	0
7	3414	1.5	0
7	4269	2	0
7	4923	2.5	0
7	5553	3	0
7	6183	3.5	0
7	6813	4	0
7	7443	4.5	0
7	8073	5	0
7	8703	5.5	0
7	9333	6	0
7	9963	6.5	0
7	10593	7	0
7	11223	7.5	0
7	11853	8	0
7	12483	8.5	0
7	13113	9	0
7	13743	9.5	0
7	14365	10	0
7	14406	10.5	0
8	3	0	0
8	1200	0.5	41
8	2505	1	50
8	3414	1.5	9
8	4269	2	0
8	4923	2.5	0
8	5553	3	0
8	6183	3.5	0
8	6813	4	0
8	7443	4.5	0
8	8073	5	0
8	8703	5.5	0
8	9333	6	0
8	9963	6.5	0
8	10593	7	0
8	11223	7.5	0
8	11853	8	0
8	12483	8.5	0
8	13113	9	0
8	13743	9.5	0
8	14365	10	0
8	14406	10.5	0
9	3	0	0
9	1200	0.5	22
9	2505	1	25
9	3414	1.5	25
9	4269	2	25
9	4923	2.5	3
9	5553	3	0
9	6183	3.5	0
9	6813	4	0
9	7443	4.5	0
9	8073	5	0
9	8703	5.5	0
9	9333	6	0
9	9963	6.5	0
9	10593	7	0
9	11223	7.5	0
9	11853	8	0
9	12483	8.5	0
9	13113	9	0
9	13743	9.5	0
9	14365	10	0
9	14406	10.5	0
10	4	0	1
10	14	0.01	2
10	21	0.02	3
10	27	0.03	4
10	42	0.04	5
10	53	0.05	6
10	68	0.06	7
10	87	0.07	8
10	107	0.08	9
10	126	0.09	10
10	154	0.1	11
10	178	0.11	12
10	206	0.12	13
10	230	0.13	14
10	258	0.14	15
10	282	0.15	16
10	310	0.16	17
10	334	0.17	18
10	362	0.18	19
10	386	0.19	20
10	414	0.2	21
10	438	0.21	22
10	466	0.22	23
10	490	0.23	24
10	518	0.24	25
10	542	0.25	26
10	570	0.26	27
10	594	0.27	28
10	622	0.28	29
10	646	0.29	30
10	674	0.3	31
10	698	0.31	32
10	726	0.32	33
10	750	0.33	34
10	778	0.34	35
10	802	0.35	36
10	830	0.36	37
10	854	0.37	38
10	882	0.38	39
10	906	0.39	40
10	934	0.4	41
10	958	0.41	42
10	986	0.42	43
10	1010	0.43	44
10	1038	0.44	45
10	1062	0.45	46
10	1090	0.46	47
10	1114	0.47	48
10	1142	0.48	49
10	1166	0.49	50
10	1194	0.5	51
10	1223	0.51	52
10	1251	0.52	53
10	1275	0.53	54
10	1303	0.54	55
10	1327	0.55	56
10	1355	0.56	57
10	1379	0.57	58
10	1407	0.58	59
10	1431	0.59	60
10	1459	0.6	61
10	1483	0.61	62
10	1511	0.62	63
10	1535	0.63	64
10	1563	0.64	65
10	1587	0.65	66
10	1615	0.66	67
10	1639	0.67	68
10	1667	0.68	69
10	1691	0.69	70
10	1719	0.7	71
10	1743	0.71	72
10	1771	0.72	73
10	1795	0.73	74
10	1823	0.74	75
10	1847	0.75	76
10	1875	0.76	77
10	1899	0.77	78
10	1927	0.78	79
10	1951	0.79	80
10	1979	0.8	81
10	2003	0.81	82
10	2031	0.82	83
10	2055	0.83	84
10	2083	0.84	85
10	2107	0.85	86
10	2135	0.86	87
10	2159	0.87	88
10	2187	0.88	89
10	2211	0.89	90
10	2239	0.9	91
10	2263	0.91	92
10	2291	0.92	93
10	2315	0.93	94
10	2343	0.94	95
10	2367	0.95	96
10	2395	0.96	97
10	2419	0.97	98
10	2447	0.98	99
10	2471	0.99	100
10	2499	1	101
10	2528	1.01	102
10	2556	1.02	103
10	2580	1.03	104
10	2605	1.04	105
10	2626	1.05	106
10	2651	1.06	107
10	2669	1.07	108
10	2691	1.08	109
10	2709	1.09	110
10	2728	1.1	111
10	2743	1.11	112
10	2762	1.12	113
10	2777	1.13	114
10	2796	1.14	115
10	2811	1.15	116
10	2830	1.16	117
10	2845	1.17	118
10	2864	1.18	119
10	2879	1.19	120
10	2898	1.2	121
10	2913	1.21	122
10	2932	1.22	123
10	2947	1.23	124
10	2966	1.24	125
10	2981	1.25	126
10	3000	1.26	127
10	3015	1.27	128
10	3034	1.28	129
10	3049	1.29	130
10	3068	1.3	131
10	3083	1.31	132
10	3102	1.32	133
10	3117	1.33	134
10	3136	1.34	135
10	3151	1.35	136
10	3170	1.36	137
10	3185	1.37	138
10	3204	1.38	139
10	3219	1.39	140
10	3238	1.4	141
10	3253	1.41	142
10	3272	1.42	143
10	3287	1.43	144
10	3306	1.44	145
10	3321	1.45	146
10	3340	1.46	147
10	3355	1.47	148
10	3374	1.48	149
10	3389	1.49	150
10	3408	1.5	151
10	3428	1.51	152
10	3447	1.52	153
10	3462	1.53	154
10	3481	1.54	155
10	3496	1.55	156
10	3515	1.56	157
10	3530	1.57	158
10	3549	1.58	159
10	3564	1.59	160
10	3583	1.6	161
10	3598	1.61	162
10	3617	1.62	163
10	3632	1.63	164
10	3651	1.64	165
10	3666	1.65	166
10	3685	1.66	167
10	3700	1.67	168
10	3719	1.68	169
10	3734	1.69	170
10	3753	1.7	171
10	3768	1.71	172
10	3787	1.72	173
10	3802	1.73	174
10	3821	1.74	175
10	3836	1.75	176
10	3855	1.76	177
10	3870	1.77	178
10	3889	1.78	179
10	3904	1.79	180
10	3923	1.8	181
10	3938	1.81	182
10	3957	1.82	183
10	3972	1.83	184
10	3991	1.84	185
10	4006	1.85	186
10	4025	1.86	187
10	4040	1.87	188
10	4059	1.88	189
10	4074	1.89	190
10	4093	1.9	191
10	4108	1.91	192
10	4127	1.92	193
10	4142	1.93	194
10	4161	1.94	195
10	4176	1.95	196
10	4195	1.96	197
10	4210	1.97	198
10	4229	1.98	199
10	4244	1.99	200
10	4263	2	201
10	4283	2.01	202
10	4302	2.02	203
10	4317	2.03	204
10	4333	2.04	205
10	4348	2.05	206
10	4364	2.06	207
10	4376	2.07	208
10	4392	2.08	209
10	4404	2.09	210
10	4417	2.1	211
10	4429	2.11	212
10	4442	2.12	213
10	4454	2.13	214
10	4467	2.14	215
10	4479	2.15	216
10	4492	2.16	217
10	4504	2.17	218
10	4517	2.18	219
10	4529	2.19	220
10	4542	2.2	221
10	4554	2.21	222
10	4567	2.22	223
10	4579	2.23	224
10	4592	2.24	225
10	4604	2.25	226
10	4617	2.26	227
10	4629	2.27	228
10	4642	2.28	229
10	4654	2.29	230
10	4667	2.3	231
10	4679	2.31	232
10	4692	2.32	233
10	4704	2.33	234
10	4717	2.34	235
10	4729	2.35	236
10	4742	2.36	237
10	4754	2.37	238
10	4767	2.38	239
10	4779	2.39	240
10	4792	2.4	241
10	4804	2.41	242
10	4817	2.42	243
10	4829	2.43	244
10	4842	2.44	245
10	4854	2.45	246
10	4867	2.46	247
10	4879	2.47	248
10	4892	2.48	249
10	4904	2.49	250
10	4917	2.5	251
10	4934	2.51	252
10	4947	2.52	253
10	4959	2.53	254
10	4972	2.54	255
10	4984	2.55	256
10	4997	2.56	257
10	5009	2.57	258
10	5022	2.58	259
10	5034	2.59	260
10	5047	2.6	261
10	5059	2.61	262
10	5072	2.62	263
10	5084	2.63	264
10	5097	2.64	265
10	5109	2.65	266
10	5122	2.66	267
10	5134	2.67	268
10	5147	2.68	269
10	5159	2.69	270
10	5172	2.7	271
10	5184	2.71	272
10	5197	2.72	273
10	5209	2.73	274
10	5222	2.74	275
10	5234	2.75	276
10	5247	2.76	277
10	5259	2.77	278
10	5272	2.78	279
10	5284	2.79	280
10	5297	2.8	281
10	5309	2.81	282
10	5322	2.82	283
10	5334	2.83	284
10	5347	2.84	285
10	5359	2.85	286
10	5372	2.86	287
10	5384	2.87	288
10	5397	2.88	289
10	5409	2.89	290
10	5422	2.9	291
10	5434	2.91	292
10	5447	2.92	293
10	5459	2.93	294
10	5472	2.94	295
10	5484	2.95	296
10	5497	2.96	297
10	5509	2.97	298
10	5522	2.98	299
10	5534	2.99	300
10	5547	3	301
10	5564	3.01	302
10	5577	3.02	303
10	5589	3.03	304
10	5602	3.04	305
10	5614	3.05	306
10	5627	3.06	307
10	5639	3.07	308
10	5652	3.08	309
10	5664	3.09	310
10	5677	3.1	311
10	5689	3.11	312
10	5702	3.12	313
10	5714	3.13	314
10	5727	3.14	315
10	5739	3.15	316
10	5752	3.16	317
10	5764	3.17	318
10	5777	3.18	319
10	5789	3.19	320
10	5802	3.2	321
10	5814	3.21	322
10	5827	3.22	323
10	5839	3.23	324
10	5852	3.24	325
10	5864	3.25	326
10	5877	3.26	327
10	5889	3.27	328
10	5902	3.28	329
10	5914	3.29	330
10	5927	3.3	331
10	5939	3.31	332
10	5952	3.32	333
10	5964	3.33	334
10	5977	3.34	335
10	5989	3.35	336
10	6002	3.36	337
10	6014	3.37	338
10	6027	3.38	339
10	6039	3.39	340
10	6052	3.4	341
10	6064	3.41	342
10	6077	3.42	343
10	6089	3.43	344
10	6102	3.44	345
10	6114	3.45	346
10	6127	3.46	347
10	6139	3.47	348
10	6152	3.48	349
10	6164	3.49	350
10	6177	3.5	351
10	6194	3.51	352
10	6207	3.52	353
10	6219	3.53	354
10	6232	3.54	355
10	6244	3.55	356
10	6257	3.56	357
10	6269	3.57	358
10	6282	3.58	359
10	6294	3.59	360
10	6307	3.6	361
10	6319	3.61	362
10	6332	3.62	363
10	6344	3.63	364
10	6357	3.64	365
10	6369	3.65	366
10	6382	3.66	367
10	6394	3.67	368
10	6407	3.68	369
10	6419	3.69	370
10	6432	3.7	371
10	6444	3.71	372
10	6457	3.72	373
10	6469	3.73	374
10	6482	3.74	375
10	6494	3.75	376
10	6507	3.76	377
10	6519	3.77	378
10	6532	3.78	379
10	6544	3.79	380
10	6557	3.8	381
10	6569	3.81	382
10	6582	3.82	383
10	6594	3.83	384
10	6607	3.84	385
10	6619	3.85	386
10	6632	3.86	387
10	6644	3.87	388
10	6657	3.88	389
10	6669	3.89	390
10	6682	3.9	391
10	6694	3.91	392
10	6707	3.92	393
10	6719	3.93	394
10	6732	3.94	395
10	6744	3.95	396
10	6757	3.96	397
10	6769	3.97	398
10	6782	3.98	399
10	6794	3.99	400
10	6807	4	401
10	6824	4.01	402
10	6837	4.02	403
10	6849	4.03	404
10	6862	4.04	405
10	6874	4.05	406
10	6887	4.06	407
10	6899	4.07	408
10	6912	4.08	409
10	6924	4.09	410
10	6937	4.1	411
10	6949	4.11	412
10	6962	4.12	413
10	6974	4.13	414
10	6987	4.14	415
10	6999	4.15	416
10	7012	4.16	417
10	7024	4.17	418
10	7037	4.18	419
10	7049	4.19	420
10	7062	4.2	421
10	7074	4.21	422
10	7087	4.22	423
10	7099	4.23	424
10	7112	4.24	425
10	7124	4.25	426
10	7137	4.26	427
10	7149	4.27	428
10	7162	4.28	429
10	7174	4.29	430
10	7187	4.3	431
10	7199	4.31	432
10	7212	4.32	433
10	7224	4.33	434
10	7237	4.34	435
10	7249	4.35	436
10	7262	4.36	437
10	7274	4.37	438
10	7287	4.38	439
10	7299	4.39	440
10	7312	4.4	441
10	7324	4.41	442
10	7337	4.42	443
10	7349	4.43	444
10	7362	4.44	445
10	7374	4.45	446
10	7387	4.46	447
10	7399	4.47	448
10	7412	4.48	449
10	7424	4.49	450
10	7437	4.5	451
10	7454	4.51	452
10	7467	4.52	453
10	7479	4.53	454