version 2
run simpleNet-0-20181121-11:54:40-20022
attr configname simpleNet
attr datetime 20181121-11:54:40
attr experiment simpleNet
attr inifile omnetpp.ini
attr iterationvars ""
attr iterationvarsf ""
attr measurement ""
attr network simpleNet
attr processid 20022
attr repetition 0
attr replication #0
attr resultdir results
attr runnumber 0
attr seedset 0

vector 0 simpleNet.node[0] "numAttemptedPerDest_Total(dest node 4):vector" ETV
vector 1 simpleNet.node[0] "numAttemptedPerDest_Total(dest node 1):vector" ETV
vector 2 simpleNet.node[0] "numInQueuePerChannel(node 1):vector" ETV
vector 3 simpleNet.node[0] "numInQueuePerChannel(node 4):vector" ETV
vector 4 simpleNet.node[0] "balancePerChannel(node 1):vector" ETV
vector 5 simpleNet.node[0] "balancePerChannel(node 4):vector" ETV
vector 6 simpleNet.node[0] "numProcessedPerChannel(node 0):vector" ETV
vector 7 simpleNet.node[0] "numProcessedPerChannel(node 1):vector" ETV
vector 8 simpleNet.node[0] "numProcessedPerChannel(node 2):vector" ETV
vector 9 simpleNet.node[0] "numProcessedPerChannel(node 3):vector" ETV
vector 10 simpleNet.node[0] "numProcessedPerChannel(node 4):vector" ETV
vector 11 simpleNet.node[1] "numAttemptedPerDest_Total(dest node 3):vector" ETV
vector 12 simpleNet.node[1] "numInQueuePerChannel(node 0):vector" ETV
vector 13 simpleNet.node[1] "numInQueuePerChannel(node 2):vector" ETV
vector 14 simpleNet.node[1] "numInQueuePerChannel(node 3):vector" ETV
vector 15 simpleNet.node[1] "balancePerChannel(node 0):vector" ETV
vector 16 simpleNet.node[1] "balancePerChannel(node 2):vector" ETV
vector 17 simpleNet.node[1] "balancePerChannel(node 3):vector" ETV
vector 18 simpleNet.node[1] "numProcessedPerChannel(node 0):vector" ETV
vector 19 simpleNet.node[1] "numProcessedPerChannel(node 1):vector" ETV
vector 20 simpleNet.node[1] "numProcessedPerChannel(node 2):vector" ETV
vector 21 simpleNet.node[1] "numProcessedPerChannel(node 3):vector" ETV
vector 22 simpleNet.node[1] "numProcessedPerChannel(node 4):vector" ETV
vector 23 simpleNet.node[2] "numAttemptedPerDest_Total(dest node 1):vector" ETV
vector 24 simpleNet.node[2] "numAttemptedPerDest_Total(dest node 4):vector" ETV
vector 25 simpleNet.node[2] "numInQueuePerChannel(node 1):vector" ETV
vector 26 simpleNet.node[2] "numInQueuePerChannel(node 3):vector" ETV
vector 27 simpleNet.node[2] "balancePerChannel(node 1):vector" ETV
vector 28 simpleNet.node[2] "balancePerChannel(node 3):vector" ETV
vector 29 simpleNet.node[2] "numProcessedPerChannel(node 0):vector" ETV
vector 30 simpleNet.node[2] "numProcessedPerChannel(node 1):vector" ETV
vector 31 simpleNet.node[2] "numProcessedPerChannel(node 2):vector" ETV
vector 32 simpleNet.node[2] "numProcessedPerChannel(node 3):vector" ETV
vector 33 simpleNet.node[2] "numProcessedPerChannel(node 4):vector" ETV
vector 34 simpleNet.node[3] "numAttemptedPerDest_Total(dest node 0):vector" ETV
vector 35 simpleNet.node[3] "numAttemptedPerDest_Total(dest node 2):vector" ETV
vector 36 simpleNet.node[3] "numInQueuePerChannel(node 1):vector" ETV
vector 37 simpleNet.node[3] "numInQueuePerChannel(node 2):vector" ETV
vector 38 simpleNet.node[3] "numInQueuePerChannel(node 4):vector" ETV
vector 39 simpleNet.node[3] "balancePerChannel(node 1):vector" ETV
vector 40 simpleNet.node[3] "balancePerChannel(node 2):vector" ETV
vector 41 simpleNet.node[3] "balancePerChannel(node 4):vector" ETV
vector 42 simpleNet.node[3] "numProcessedPerChannel(node 0):vector" ETV
vector 43 simpleNet.node[3] "numProcessedPerChannel(node 1):vector" ETV
vector 44 simpleNet.node[3] "numProcessedPerChannel(node 2):vector" ETV
vector 45 simpleNet.node[3] "numProcessedPerChannel(node 3):vector" ETV
vector 46 simpleNet.node[3] "numProcessedPerChannel(node 4):vector" ETV
vector 47 simpleNet.node[4] "numAttemptedPerDest_Total(dest node 2):vector" ETV
vector 48 simpleNet.node[4] "numInQueuePerChannel(node 0):vector" ETV
vector 49 simpleNet.node[4] "numInQueuePerChannel(node 3):vector" ETV
vector 50 simpleNet.node[4] "balancePerChannel(node 0):vector" ETV
vector 51 simpleNet.node[4] "balancePerChannel(node 3):vector" ETV
vector 52 simpleNet.node[4] "numProcessedPerChannel(node 0):vector" ETV
vector 53 simpleNet.node[4] "numProcessedPerChannel(node 1):vector" ETV
vector 54 simpleNet.node[4] "numProcessedPerChannel(node 2):vector" ETV
vector 55 simpleNet.node[4] "numProcessedPerChannel(node 3):vector" ETV
vector 56 simpleNet.node[4] "numProcessedPerChannel(node 4):vector" ETV
vector 57 simpleNet.node[0] completionTime:vector ETV
attr interpolationmode none
attr source completionTime
attr title "completionTime, vector"
vector 58 simpleNet.node[0] "numCompletedPerDest_Total(dest node 4):vector" ETV
vector 59 simpleNet.node[0] "numCompletedPerDest_Total(dest node 1):vector" ETV
vector 60 simpleNet.node[1] completionTime:vector ETV
attr interpolationmode none
attr source completionTime
attr title "completionTime, vector"
vector 61 simpleNet.node[1] "numCompletedPerDest_Total(dest node 3):vector" ETV
vector 62 simpleNet.node[2] completionTime:vector ETV
attr interpolationmode none
attr source completionTime
attr title "completionTime, vector"
vector 63 simpleNet.node[2] "numCompletedPerDest_Total(dest node 1):vector" ETV
vector 64 simpleNet.node[3] completionTime:vector ETV
attr interpolationmode none
attr source completionTime
attr title "completionTime, vector"
vector 65 simpleNet.node[3] "numCompletedPerDest_Total(dest node 2):vector" ETV
vector 66 simpleNet.node[2] "numCompletedPerDest_Total(dest node 4):vector" ETV
vector 67 simpleNet.node[3] "numCompletedPerDest_Total(dest node 0):vector" ETV
vector 68 simpleNet.node[4] completionTime:vector ETV
attr interpolationmode none
attr source completionTime
attr title "completionTime, vector"
vector 69 simpleNet.node[4] "numCompletedPerDest_Total(dest node 2):vector" ETV
0	1	0	1
0	18	0.02	2
0	38	0.04	3
0	62	0.06	4
0	98	0.08	5
0	142	0.1	6
0	190	0.12	7
0	248	0.14	8
0	309	0.16	9
0	372	0.18	10
0	435	0.2	11
0	498	0.22	12
0	561	0.24	13
0	624	0.26	14
0	687	0.28	15
0	750	0.3	16
0	813	0.32	17
0	876	0.34	18
0	939	0.36	19
0	1002	0.38	20
0	1065	0.4	21
0	1128	0.42	22
0	1191	0.44	23
0	1254	0.46	24
0	1317	0.48	25
0	1380	0.5	26
0	1448	0.52	27
0	1511	0.54	28
0	1574	0.56	29
0	1637	0.58	30
0	1700	0.6	31
0	1763	0.62	32
0	1826	0.64	33
0	1889	0.66	34
0	1952	0.68	35
0	2015	0.7	36
0	2078	0.72	37
0	2141	0.74	38
0	2204	0.76	39
0	2267	0.78	40
0	2330	0.8	41
0	2393	0.82	42
0	2456	0.84	43
0	2519	0.86	44
0	2582	0.88	45
0	2645	0.9	46
0	2708	0.92	47
0	2771	0.94	48
0	2834	0.96	49
0	2897	0.98	50
0	2960	1	51
0	3028	1.02	52
0	3091	1.04	53
0	3154	1.06	54
0	3217	1.08	55
0	3280	1.1	56
0	3343	1.12	57
0	3406	1.14	58
0	3469	1.16	59
0	3532	1.18	60
0	3595	1.2	61
0	3658	1.22	62
0	3721	1.24	63
0	3784	1.26	64
0	3847	1.28	65
0	3910	1.3	66
0	3973	1.32	67
0	4036	1.34	68
0	4099	1.36	69
0	4162	1.38	70
0	4225	1.4	71
0	4288	1.42	72
0	4351	1.44	73
0	4414	1.46	74
0	4477	1.48	75
0	4540	1.5	76
0	4608	1.52	77
0	4671	1.54	78
0	4734	1.56	79
0	4797	1.58	80
0	4860	1.6	81
0	4923	1.62	82
0	4986	1.64	83
0	5049	1.66	84
0	5112	1.68	85
0	5175	1.7	86
0	5238	1.72	87
0	5301	1.74	88
0	5364	1.76	89
0	5426	1.78	90
0	5487	1.8	91
0	5548	1.82	92
0	5608	1.84	93
0	5666	1.86	94
0	5726	1.88	95
0	5786	1.9	96
0	5844	1.92	97
0	5903	1.94	98
0	5962	1.96	99
0	6016	1.98	100
0	6072	2	101
0	6132	2.02	102
0	6177	2.04	103
0	6227	2.06	104
0	6273	2.08	105
0	6307	2.1	106
0	6348	2.12	107
0	6388	2.14	108
0	6419	2.16	109
0	6458	2.18	110
0	6497	2.2	111
0	6528	2.22	112
0	6566	2.24	113
0	6602	2.26	114
0	6633	2.28	115
0	6669	2.3	116
0	6705	2.32	117
0	6736	2.34	118
0	6770	2.36	119
0	6803	2.38	120
0	6834	2.4	121
0	6868	2.42	122
0	6902	2.44	123
0	6933	2.46	124
0	6966	2.48	125
0	6999	2.5	126
0	7035	2.52	127
0	7068	2.54	128
0	7101	2.56	129
0	7132	2.58	130
0	7164	2.6	131
0	7196	2.62	132
0	7227	2.64	133
0	7259	2.66	134
0	7291	2.68	135
0	7322	2.7	136
0	7353	2.72	137
0	7384	2.74	138
0	7415	2.76	139
0	7446	2.78	140
0	7477	2.8	141
0	7508	2.82	142
0	7539	2.84	143
0	7570	2.86	144
0	7601	2.88	145
0	7632	2.9	146
0	7663	2.92	147
0	7694	2.94	148
0	7725	2.96	149
0	7756	2.98	150
0	7787	3	151
0	7823	3.02	152
0	7854	3.04	153
0	7885	3.06	154
0	7916	3.08	155
0	7947	3.1	156
0	7978	3.12	157
0	8009	3.14	158
0	8040	3.16	159
0	8071	3.18	160
0	8102	3.2	161
0	8133	3.22	162
0	8164	3.24	163
0	8195	3.26	164
0	8226	3.28	165
0	8257	3.3	166
0	8288	3.32	167
0	8319	3.34	168
0	8350	3.36	169
0	8381	3.38	170
0	8412	3.4	171
0	8443	3.42	172
0	8474	3.44	173
0	8505	3.46	174
0	8536	3.48	175
0	8567	3.5	176
0	8603	3.52	177
0	8634	3.54	178
0	8665	3.56	179
0	8696	3.58	180
0	8727	3.6	181
0	8758	3.62	182
0	8789	3.64	183
0	8820	3.66	184
0	8851	3.68	185
0	8882	3.7	186
0	8913	3.72	187
0	8944	3.74	188
0	8975	3.76	189
0	9006	3.78	190
0	9037	3.8	191
0	9068	3.82	192
0	9098	3.84	193
0	9128	3.86	194
0	9157	3.88	195
0	9185	3.9	196
0	9213	3.92	197
0	9241	3.94	198
0	9269	3.96	199
0	9297	3.98	200
0	9325	4	201
0	9357	4.02	202
0	9383	4.04	203
0	9409	4.06	204
0	9435	4.08	205
0	9461	4.1	206
0	9487	4.12	207
0	9513	4.14	208
0	9539	4.16	209
0	9565	4.18	210
0	9591	4.2	211
0	9617	4.22	212
0	9643	4.24	213
0	9669	4.26	214
0	9695	4.28	215
0	9721	4.3	216
0	9747	4.32	217
0	9773	4.34	218
0	9799	4.36	219
0	9825	4.38	220
0	9851	4.4	221
0	9877	4.42	222
0	9903	4.44	223
0	9929	4.46	224
0	9955	4.48	225
0	9981	4.5	226
0	10012	4.52	227
0	10038	4.54	228
0	10064	4.56	229
0	10090	4.58	230
0	10116	4.6	231
0	10142	4.62	232
0	10168	4.64	233
0	10194	4.66	234
0	10220	4.68	235
0	10246	4.7	236
0	10272	4.72	237
0	10298	4.74	238
0	10324	4.76	239
0	10350	4.78	240
0	10376	4.8	241
0	10402	4.82	242
0	10428	4.84	243
0	10454	4.86	244
0	10480	4.88	245
0	10506	4.9	246
0	10532	4.92	247
0	10558	4.94	248
0	10584	4.96	249
0	10610	4.98	250
0	10636	5	251
0	10667	5.02	252
0	10693	5.04	253
0	10719	5.06	254
0	10745	5.08	255
0	10771	5.1	256
0	10797	5.12	257
0	10823	5.14	258
0	10849	5.16	259
0	10875	5.18	260
0	10901	5.2	261
0	10927	5.22	262
0	10953	5.24	263
0	10979	5.26	264
0	11005	5.28	265
0	11031	5.3	266
0	11057	5.32	267
0	11083	5.34	268
0	11109	5.36	269
0	11135	5.38	270
0	11161	5.4	271
0	11187	5.42	272
0	11213	5.44	273
0	11239	5.46	274
0	11265	5.48	275
0	11291	5.5	276
0	11322	5.52	277
0	11348	5.54	278
0	11374	5.56	279
0	11400	5.58	280
0	11426	5.6	281
0	11452	5.62	282
0	11478	5.64	283
0	11504	5.66	284
0	11530	5.68	285
0	11556	5.7	286
0	11582	5.72	287
0	11608	5.74	288
0	11633	5.76	289
0	11658	5.78	290
0	11683	5.8	291
0	11708	5.82	292
0	11733	5.84	293
0	11758	5.86	294
0	11783	5.88	295
0	11808	5.9	296
0	11833	5.92	297
0	11858	5.94	298
0	11883	5.96	299
0	11908	5.98	300
0	11932	6	301
0	11961	6.02	302
0	11985	6.04	303
0	12009	6.06	304
0	12033	6.08	305
0	12057	6.1	306
0	12081	6.12	307
0	12105	6.14	308
0	12129	6.16	309
0	12153	6.18	310
0	12177	6.2	311
0	12201	6.22	312
0	12225	6.24	313
0	12249	6.26	314
0	12273	6.28	315
0	12297	6.3	316
0	12321	6.32	317
0	12345	6.34	318
0	12369	6.36	319
0	12393	6.38	320
0	12417	6.4	321
0	12441	6.42	322
0	12465	6.44	323
0	12489	6.46	324
0	12513	6.48	325
0	12537	6.5	326
0	12566	6.52	327
0	12590	6.54	328
0	12614	6.56	329
0	12638	6.58	330
0	12662	6.6	331
0	12686	6.62	332
0	12710	6.64	333
0	12734	6.66	334
0	12758	6.68	335
0	12782	6.7	336
0	12806	6.72	337
0	12830	6.74	338
0	12854	6.76	339
0	12878	6.78	340
0	12902	6.8	341
0	12926	6.82	342
0	12950	6.84	343
0	12974	6.86	344
0	12998	6.88	345
0	13022	6.9	346
0	13046	6.92	347
0	13070	6.94	348
0	13094	6.96	349
0	13118	6.98	350
0	13142	7	351
0	13171	7.02	352
0	13195	7.04	353
0	13219	7.06	354
0	13243	7.08	355
0	13267	7.1	356
0	13291	7.12	357
0	13315	7.14	358
0	13339	7.16	359
0	13363	7.18	360
0	13387	7.2	361
0	13411	7.22	362
0	13435	7.24	363
0	13459	7.26	364
0	13483	7.28	365
0	13507	7.3	366
0	13531	7.32	367
0	13555	7.34	368
0	13579	7.36	369
0	13603	7.38	370
0	13627	7.4	371
0	13651	7.42	372
0	13675	7.44	373
0	13699	7.46	374
0	13723	7.48	375
0	13747	7.5	376
0	13776	7.52	377
0	13800	7.54	378
0	13824	7.56	379
0	13848	7.58	380
0	13872	7.6	381
0	13896	7.62	382
0	13920	7.64	383
0	13944	7.66	384
0	13968	7.68	385
0	13992	7.7	386
0	14016	7.72	387
0	14040	7.74	388
0	14064	7.76	389
0	14088	7.78	390
0	14112	7.8	391
0	14136	7.82	392
0	14160	7.84	393
0	14184	7.86	394
0	14208	7.88	395
0	14232	7.9	396
0	14256	7.92	397
0	14280	7.94	398
0	14304	7.96	399
0	14328	7.98	400
0	14352	8	401
0	14381	8.02	402
0	14405	8.04	403
0	14429	8.06	404
0	14453	8.08	405
0	14477	8.1	406
0	14501	8.12	407
0	14525	8.14	408
0	14549	8.16	409
0	14573	8.18	410
0	14597	8.2	411
0	14621	8.22	412
0	14645	8.24	413
0	14669	8.26	414
0	14693	8.28	415
0	14717	8.3	416
0	14741	8.32	417
0	14765	8.34	418
0	14789	8.36	419
0	14813	8.38	420
0	14837	8.4	421
0	14861	8.42	422
0	14885	8.44	423
0	14909	8.46	424
0	14933	8.48	425
0	14957	8.5	426
0	14986	8.52	427
0	15010	8.54	428
0	15034	8.56	429
0	15058	8.58	430
0	15082	8.6	431
0	15106	8.62	432
0	15130	8.64	433
0	15154	8.66	434
0	15178	8.68	435
0	15202	8.7	436
0	15226	8.72	437
0	15250	8.74	438
0	15274	8.76	439
0	15298	8.78	440
0	15322	8.8	441
0	15346	8.82	442
0	15370	8.84	443
0	15394	8.86	444
0	15418	8.88	445
0	15442	8.9	446
0	15466	8.92	447
0	15490	8.94	448
0	15514	8.96	449
0	15538	8.98	450
0	15562	9	451
0	15591	9.02	452
0	15615	9.04	453
0	15639	9.06	454
0	15663	9.08	455
0	15687	9.1	456
0	15711	9.12	457
0	15735	9.14	458
0	15759	9.16	459
0	15783	9.18	460
0	15807	9.2	461
0	15831	9.22	462
0	15855	9.24	463
0	15879	9.26	464
0	15903	9.28	465
0	15927	9.3	466
0	15951	9.32	467
0	15975	9.34	468
0	15999	9.36	469
0	16023	9.38	470
0	16047	9.4	471
0	16071	9.42	472
0	16095	9.44	473
0	16119	9.46	474
0	16143	9.48	475
0	16167	9.5	476
0	16196	9.52	477
0	16220	9.54	478
0	16244	9.56	479
0	16268	9.58	480
0	16292	9.6	481
0	16316	9.62	482
0	16340	9.64	483
0	16364	9.66	484
0	16388	9.68	485
0	16412	9.7	486
0	16436	9.72	487
0	16460	9.74	488
0	16484	9.76	489
0	16508	9.78	490
0	16532	9.8	491
0	16556	9.82	492
0	16580	9.84	493
0	16604	9.86	494
0	16628	9.88	495
0	16652	9.9	496
0	16676	9.92	497
0	16700	9.94	498
0	16724	9.96	499
0	16748	9.98	500
1	2	0	1
1	19	0.02	2
1	39	0.04	3
1	63	0.06	4
1	99	0.08	5
1	143	0.1	6
1	191	0.12	7
1	249	0.14	8
1	310	0.16	9
1	373	0.18	10
1	436	0.2	11
1	499	0.22	12
1	562	0.24	13
1	625	0.26	14
1	688	0.28	15
1	751	0.3	16
1	814	0.32	17
1	877	0.34	18
1	940	0.36	19
1	1003	0.38	20
1	1066	0.4	21
1	1129	0.42	22
1	1192	0.44	23
1	1255	0.46	24
1	1318	0.48	25
1	1381	0.5	26
1	1449	0.52	27
1	1512	0.54	28
1	1575	0.56	29
1	1638	0.58	30
1	1701	0.6	31
1	1764	0.62	32
1	1827	0.64	33
1	1890	0.66	34
1	1953	0.68	35
1	2016	0.7	36
1	2079	0.72	37
1	2142	0.74	38
1	2205	0.76	39
1	2268	0.78	40
1	2331	0.8	41
1	2394	0.82	42
1	2457	0.84	43
1	2520	0.86	44
1	2583	0.88	45
1	2646	0.9	46
1	2709	0.92	47
1	2772	0.94	48
1	2835	0.96	49
1	2898	0.98	50
1	2961	1	51
1	3029	1.02	52
1	3092	1.04	53
1	3155	1.06	54
1	3218	1.08	55
1	3281	1.1	56
1	3344	1.12	57
1	3407	1.14	58
1	3470	1.16	59
1	3533	1.18	60
1	3596	1.2	61
1	3659	1.22	62
1	3722	1.24	63
1	3785	1.26	64
1	3848	1.28	65
1	3911	1.3	66
1	3974	1.32	67
1	4037	1.34	68
1	4100	1.36	69
1	4163	1.38	70
1	4226	1.4	71
1	4289	1.42	72
1	4352	1.44	73
1	4415	1.46	74
1	4478	1.48	75
1	4541	1.5	76
1	4609	1.52	77
1	4672	1.54	78
1	4735	1.56	79
1	4798	1.58	80
1	4861	1.6	81
1	4924	1.62	82
1	4987	1.64	83
1	5050	1.66	84
1	5113	1.68	85
1	5176	1.7	86
1	5239	1.72	87
1	5302	1.74	88
1	5365	1.76	89
1	5427	1.78	90
1	5488	1.8	91
1	5549	1.82	92
1	5609	1.84	93
1	5667	1.86	94
1	5727	1.88	95
1	5787	1.9	96
1	5845	1.92	97
1	5904	1.94	98
1	5963	1.96	99
1	6017	1.98	100
1	6073	2	101
1	6133	2.02	102
1	6178	2.04	103
1	6228	2.06	104
1	6274	2.08	105
1	6308	2.1	106
1	6349	2.12	107
1	6389	2.14	108
1	6420	2.16	109
1	6459	2.18	110
1	6498	2.2	111
1	6529	2.22	112
1	6567	2.24	113
1	6603	2.26	114
1	6634	2.28	115
1	6670	2.3	116
1	6706	2.32	117
1	6737	2.34	118
1	6771	2.36	119
1	6804	2.38	120
1	6835	2.4	121
1	6869	2.42	122
1	6903	2.44	123
1	6934	2.46	124
1	6967	2.48	125
1	7000	2.5	126
1	7036	2.52	127
1	7069	2.54	128
1	7102	2.56	129
1	7133	2.58	130
1	7165	2.6	131
1	7197	2.62	132
1	7228	2.64	133
1	7260	2.66	134
1	7292	2.68	135
1	7323	2.7	136
1	7354	2.72	137
1	7385	2.74	138
1	7416	2.76	139
1	7447	2.78	140
1	7478	2.8	141
1	7509	2.82	142
1	7540	2.84	143
1	7571	2.86	144
1	7602	2.88	145
1	7633	2.9	146
1	7664	2.92	147
1	7695	2.94	148
1	7726	2.96	149
1	7757	2.98	150
1	7788	3	151
1	7824	3.02	152
1	7855	3.04	153
1	7886	3.06	154
1	7917	3.08	155
1	7948	3.1	156
1	7979	3.12	157
1	8010	3.14	158
1	8041	3.16	159
1	8072	3.18	160
1	8103	3.2	161
1	8134	3.22	162
1	8165	3.24	163
1	8196	3.26	164
1	8227	3.28	165
1	8258	3.3	166
1	8289	3.32	167
1	8320	3.34	168
1	8351	3.36	169
1	8382	3.38	170
1	8413	3.4	171
1	8444	3.42	172
1	8475	3.44	173
1	8506	3.46	174
1	8537	3.48	175
1	8568	3.5	176
1	8604	3.52	177
1	8635	3.54	178
1	8666	3.56	179
1	8697	3.58	180
1	8728	3.6	181
1	8759	3.62	182
1	8790	3.64	183
1	8821	3.66	184
1	8852	3.68	185
1	8883	3.7	186
1	8914	3.72	187
1	8945	3.74	188
1	8976	3.76	189
1	9007	3.78	190
1	9038	3.8	191
1	9069	3.82	192
1	9099	3.84	193
1	9129	3.86	194
1	9158	3.88	195
1	9186	3.9	196
1	9214	3.92	197
1	9242	3.94	198
1	9270	3.96	199
1	9298	3.98	200
1	9326	4	201
1	9358	4.02	202
1	9384	4.04	203
1	9410	4.06	204
1	9436	4.08	205
1	9462	4.1	206
1	9488	4.12	207
1	9514	4.14	208
1	9540	4.16	209
1	9566	4.18	210
1	9592	4.2	211
1	9618	4.22	212
1	9644	4.24	213
1	9670	4.26	214
1	9696	4.28	215
1	9722	4.3	216
1	9748	4.32	217
1	9774	4.34	218
1	9800	4.36	219
1	9826	4.38	220
1	9852	4.4	221
1	9878	4.42	222
1	9904	4.44	223
1	9930	4.46	224
1	9956	4.48	225
1	9982	4.5	226
1	10013	4.52	227
1	10039	4.54	228
1	10065	4.56	229
1	10091	4.58	230
1	10117	4.6	231
1	10143	4.62	232
1	10169	4.64	233
1	10195	4.66	234
1	10221	4.68	235
1	10247	4.7	236
1	10273	4.72	237
1	10299	4.74	238
1	10325	4.76	239
1	10351	4.78	240
1	10377	4.8	241
1	10403	4.82	242
1	10429	4.84	243
1	10455	4.86	244
1	10481	4.88	245
1	10507	4.9	246
1	10533	4.92	247
1	10559	4.94	248
1	10585	4.96	249
1	10611	4.98	250
1	10637	5	251
1	10668	5.02	252
1	10694	5.04	253
1	10720	5.06	254
1	10746	5.08	255
1	10772	5.1	256
1	10798	5.12	257
1	10824	5.14	258
1	10850	5.16	259
1	10876	5.18	260
1	10902	5.2	261
1	10928	5.22	262
1	10954	5.24	263
1	10980	5.26	264
1	11006	5.28	265
1	11032	5.3	266
1	11058	5.32	267
1	11084	5.34	268
1	11110	5.36	269
1	11136	5.38	270
1	11162	5.4	271
1	11188	5.42	272
1	11214	5.44	273
1	11240	5.46	274
1	11266	5.48	275
1	11292	5.5	276
1	11323	5.52	277
1	11349	5.54	278
1	11375	5.56	279
1	11401	5.58	280
1	11427	5.6	281
1	11453	5.62	282
1	11479	5.64	283
1	11505	5.66	284
1	11531	5.68	285
1	11557	5.7	286
1	11583	5.72	287
1	11609	5.74	288
1	11634	5.76	289
1	11659	5.78	290
1	11684	5.8	291
1	11709	5.82	292
1	11734	5.84	293
1	11759	5.86	294
1	11784	5.88	295
1	11809	5.9	296
1	11834	5.92	297
1	11859	5.94	298
1	11884	5.96	299
1	11909	5.98	300
1	11933	6	301
1	11962	6.02	302
1	11986	6.04	303
1	12010	6.06	304
1	12034	6.08	305
1	12058	6.1	306
1	12082	6.12	307
1	12106	6.14	308
1	12130	6.16	309
1	12154	6.18	310
1	12178	6.2	311
1	12202	6.22	312
1	12226	6.24	313
1	12250	6.26	314
1	12274	6.28	315
1	12298	6.3	316
1	12322	6.32	317
1	12346	6.34	318
1	12370	6.36	319
1	12394	6.38	320
1	12418	6.4	321
1	12442	6.42	322
1	12466	6.44	323
1	12490	6.46	324
1	12514	6.48	325
1	12538	6.5	326
1	12567	6.52	327
1	12591	6.54	328
1	12615	6.56	329
1	12639	6.58	330
1	12663	6.6	331
1	12687	6.62	332
1	12711	6.64	333
1	12735	6.66	334
1	12759	6.68	335
1	12783	6.7	336
1	12807	6.72	337
1	12831	6.74	338
1	12855	6.76	339
1	12879	6.78	340
1	12903	6.8	341
1	12927	6.82	342
1	12951	6.84	343
1	12975	6.86	344
1	12999	6.88	345
1	13023	6.9	346
1	13047	6.92	347
1	13071	6.94	348
1	13095	6.96	349
1	13119	6.98	350
1	13143	7	351
1	13172	7.02	352
1	13196	7.04	353
1	13220	7.06	354
1	13244	7.08	355
1	13268	7.1	356
1	13292	7.12	357
1	13316	7.14	358
1	13340	7.16	359
1	13364	7.18	360
1	13388	7.2	361
1	13412	7.22	362
1	13436	7.24	363
1	13460	7.26	364
1	13484	7.28	365
1	13508	7.3	366
1	13532	7.32	367
1	13556	7.34	368
1	13580	7.36	369
1	13604	7.38	370
1	13628	7.4	371
1	13652	7.42	372
1	13676	7.44	373
1	13700	7.46	374
1	13724	7.48	375
1	13748	7.5	376
1	13777	7.52	377
1	13801	7.54	378
1	13825	7.56	379
1	13849	7.58	380
1	13873	7.6	381
1	13897	7.62	382
1	13921	7.64	383
1	13945	7.66	384
1	13969	7.68	385
1	13993	7.7	386
1	14017	7.72	387
1	14041	7.74	388
1	14065	7.76	389
1	14089	7.78	390
1	14113	7.8	391
1	14137	7.82	392
1	14161	7.84	393
1	14185	7.86	394
1	14209	7.88	395
1	14233	7.9	396
1	14257	7.92	397
1	14281	7.94	398
1	14305	7.96	399
1	14329	7.98	400
1	14353	8	401
1	14382	8.02	402
1	14406	8.04	403
1	14430	8.06	404
1	14454	8.08	405
1	14478	8.1	406
1	14502	8.12	407
1	14526	8.14	408
1	14550	8.16	409
1	14574	8.18	410
1	14598	8.2	411
1	14622	8.22	412
1	14646	8.24	413
1	14670	8.26	414
1	14694	8.28	415
1	14718	8.3	416
1	14742	8.32	417
1	14766	8.34	418
1	14790	8.36	419
1	14814	8.38	420
1	14838	8.4	421
1	14862	8.42	422
1	14886	8.44	423
1	14910	8.46	424
1	14934	8.48	425
1	14958	8.5	426
1	14987	8.52	427
1	15011	8.54	428
1	15035	8.56	429
1	15059	8.58	430
1	15083	8.6	431
1	15107	8.62	432
1	15131	8.64	433
1	15155	8.66	434
1	15179	8.68	435
1	15203	8.7	436
1	15227	8.72	437
1	15251	8.74	438
1	15275	8.76	439
1	15299	8.78	440
1	15323	8.8	441
1	15347	8.82	442
1	15371	8.84	443
1	15395	8.86	444
1	15419	8.88	445
1	15443	8.9	446
1	15467	8.92	447
1	15491	8.94	448
1	15515	8.96	449
1	15539	8.98	450
1	15563	9	451
1	15592	9.02	452
1	15616	9.04	453
1	15640	9.06	454
1	15664	9.08	455
1	15688	9.1	456
1	15712	9.12	457
1	15736	9.14	458
1	15760	9.16	459
1	15784	9.18	460
1	15808	9.2	461
1	15832	9.22	462
1	15856	9.24	463
1	15880	9.26	464
1	15904	9.28	465
1	15928	9.3	466
1	15952	9.32	467
1	15976	9.34	468
1	16000	9.36	469
1	16024	9.38	470
1	16048	9.4	471
1	16072	9.42	472
1	16096	9.44	473
1	16120	9.46	474
1	16144	9.48	475
1	16168	9.5	476
1	16197	9.52	477
1	16221	9.54	478
1	16245	9.56	479
1	16269	9.58	480
1	16293	9.6	481
1	16317	9.62	482
1	16341	9.64	483
1	16365	9.66	484
1	16389	9.68	485
1	16413	9.7	486
1	16437	9.72	487
1	16461	9.74	488
1	16485	9.76	489
1	16509	9.78	490
1	16533	9.8	491
1	16557	9.82	492
1	16581	9.84	493
1	16605	9.86	494
1	16629	9.88	495
1	16653	9.9	496
1	16677	9.92	497
1	16701	9.94	498
1	16725	9.96	499
1	16749	9.98	500
2	3	0	0
2	1388	0.5	0
2	2968	1	0
2	4548	1.5	0
2	6080	2	0
2	7007	2.5	0
2	7795	3	0
2	8575	3.5	0
2	9333	4	0
2	9989	4.5	0
2	10644	5	0
2	11299	5.5	0
2	11940	6	0
2	12545	6.5	0
2	13150	7	0
2	13755	7.5	0
2	14360	8	0
2	14965	8.5	0
2	15570	9	0
2	16175	9.5	0
2	16772	10	0
2	16882	10.5	0
3	3	0	0
3	1388	0.5	0
3	2968	1	0
3	4548	1.5	0
3	6080	2	1
3	7007	2.5	26
3	7795	3	51
3	8575	3.5	76
3	9333	4	101
3	9989	4.5	126
3	10644	5	151
3	11299	5.5	176
3	11940	6	201
3	12545	6.5	226
3	13150	7	251
3	13755	7.5	276
3	14360	8	301
3	14965	8.5	326
3	15570	9	351
3	16175	9.5	376
3	16772	10	400
3	16882	10.5	400
4	3	0	99
4	1388	0.5	112
4	2968	1	137
4	4548	1.5	162
4	6080	2	187
4	7007	2.5	190
4	7795	3	190
4	8575	3.5	190
4	9333	4	190
4	9989	4.5	190
4	10644	5	190
4	11299	5.5	190
4	11940	6	190
4	12545	6.5	190
4	13150	7	190
4	13755	7.5	190
4	14360	8	190
4	14965	8.5	190
4	15570	9	190
4	16175	9.5	190
4	16772	10	191
4	16882	10.5	200
5	3	0	99
5	1388	0.5	74
5	2968	1	49
5	4548	1.5	24
5	6080	2	0
5	7007	2.5	0
5	7795	3	0
5	8575	3.5	0
5	9333	4	0
5	9989	4.5	0
5	10644	5	0
5	11299	5.5	0
5	11940	6	0
5	12545	6.5	0
5	13150	7	0
5	13755	7.5	0
5	14360	8	0
5	14965	8.5	0
5	15570	9	0
5	16175	9.5	0
5	16772	10	0
5	16882	10.5	0
6	3	0	0
6	1388	0.5	0
6	2968	1	0
6	4548	1.5	0
6	6080	2	0
6	7007	2.5	0
6	7795	3	0
6	8575	3.5	0
6	9333	4	0
6	9989	4.5	0
6	10644	5	0
6	11299	5.5	0
6	11940	6	0
6	12545	6.5	0
6	13150	7	0
6	13755	7.5	0
6	14360	8	0
6	14965	8.5	0
6	15570	9	0
6	16175	9.5	0
6	16772	10	0
6	16882	10.5	0
7	3	0	0
7	1388	0.5	60
7	2968	1	75
7	4548	1.5	75
7	6080	2	75
7	7007	2.5	53
7	7795	3	50
7	8575	3.5	50
7	9333	4	50
7	9989	4.5	50
7	10644	5	50
7	11299	5.5	50
7	11940	6	50
7	12545	6.5	50
7	13150	7	50
7	13755	7.5	50
7	14360	8	50
7	14965	8.5	50
7	15570	9	50
7	16175	9.5	50
7	16772	10	50
7	16882	10.5	12
8	3	0	0
8	1388	0.5	0
8	2968	1	0
8	4548	1.5	0
8	6080	2	0
8	7007	2.5	0
8	7795	3	0
8	8575	3.5	0
8	9333	4	0
8	9989	4.5	0
8	10644	5	0
8	11299	5.5	0
8	11940	6	0
8	12545	6.5	0
8	13150	7	0
8	13755	7.5	0
8	14360	8	0
8	14965	8.5	0
8	15570	9	0
8	16175	9.5	0
8	16772	10	0
8	16882	10.5	0
9	3	0	0
9	1388	0.5	0
9	2968	1	0
9	4548	1.5	0
9	6080	2	0
9	7007	2.5	0
9	7795	3	0
9	8575	3.5	0
9	9333	4	0
9	9989	4.5	0
9	10644	5	0
9	11299	5.5	0
9	11940	6	0
9	12545	6.5	0
9	13150	7	0
9	13755	7.5	0
9	14360	8	0
9	14965	8.5	0
9	15570	9	0
9	16175	9.5	0
9	16772	10	0
9	16882	10.5	0
10	3	0	0
10	1388	0.5	22
10	2968	1	25
10	4548	1.5	25
10	6080	2	25
10	7007	2.5	3
10	7795	3	0
10	8575	3.5	0
10	9333	4	0
10	9989	4.5	0
10	10644	5	0
10	11299	5.5	0
10	11940	6	0
10	12545	6.5	0
10	13150	7	0
10	13755	7.5	0
10	14360	8	0
10	14965	8.5	0
10	15570	9	0
10	16175	9.5	0
10	16772	10	0
10	16882	10.5	0
11	4	0	1
11	14	0.01	2
11	20	0.02	3
11	26	0.03	4
11	40	0.04	5
11	50	0.05	6
11	64	0.06	7
11	82	0.07	8
11	100	0.08	9
11	118	0.09	10
11	144	0.1	11
11	166	0.11	12
11	192	0.12	13
11	220	0.13	14
11	250	0.14	15
11	278	0.15	16
11	311	0.16	17
11	341	0.17	18
11	374	0.18	19
11	404	0.19	20
11	437	0.2	21
11	467	0.21	22
11	500	0.22	23
11	530	0.23	24
11	563	0.24	25
11	593	0.25	26
11	626	0.26	27
11	656	0.27	28
11	689	0.28	29
11	719	0.29	30
11	752	0.3	31
11	782	0.31	32
11	815	0.32	33
11	845	0.33	34
11	878	0.34	35
11	908	0.35	36
11	941	0.36	37
11	971	0.37	38
11	1004	0.38	39
11	1034	0.39	40
11	1067	0.4	41
11	1097	0.41	42
11	1130	0.42	43
11	1160	0.43	44
11	1193	0.44	45
11	1223	0.45	46
11	1256	0.46	47
11	1286	0.47	48
11	1319	0.48	49
11	1349	0.49	50
11	1382	0.5	51
11	1417	0.51	52
11	1450	0.52	53
11	1480	0.53	54
11	1513	0.54	55
11	1543	0.55	56
11	1576	0.56	57
11	1606	0.57	58
11	1639	0.58	59
11	1669	0.59	60
11	1702	0.6	61
11	1732	0.61	62
11	1765	0.62	63
11	1795	0.63	64
11	1828	0.64	65
11	1858	0.65	66
11	1891	0.66	67
11	1921	0.67	68
11	1954	0.68	69
11	1984	0.69	70
11	2017	0.7	71
11	2047	0.71	72
11	2080	0.72	73
11	2110	0.73	74
11	2143	0.74	75
11	2173	0.75	76
11	2206	0.76	77
11	2236	0.77	78
11	2269	0.78	79
11	2299	0.79	80
11	2332	0.8	81
11	2362	0.81	82
11	2395	0.82	83
11	2425	0.83	84
11	2458	0.84	85
11	2488	0.85	86
11	2521	0.86	87
11	2551	0.87	88
11	2584	0.88	89
11	2614	0.89	90
11	2647	0.9	91
11	2677	0.91	92
11	2710	0.92	93
11	2740	0.93	94
11	2773	0.94	95
11	2803	0.95	96
11	2836	0.96	97
11	2866	0.97	98
11	2899	0.98	99
11	2929	0.99	100
11	2962	1	101
11	2997	1.01	102
11	3030	1.02	103
11	3060	1.03	104
11	3093	1.04	105
11	3123	1.05	106
11	3156	1.06	107
11	3186	1.07	108
11	3219	1.08	109
11	3249	1.09	110
11	3282	1.1	111
11	3312	1.11	112
11	3345	1.12	113
11	3375	1.13	114
11	3408	1.14	115
11	3438	1.15	116
11	3471	1.16	117
11	3501	1.17	118
11	3534	1.18	119
11	3564	1.19	120
11	3597	1.2	121
11	3627	1.21	122
11	3660	1.22	123
11	3690	1.23	124
11	3723	1.24	125
11	3753	1.25	126
11	3786	1.26	127
11	3816	1.27	128
11	3849	1.28	129
11	3879	1.29	130
11	3912	1.3	131
11	3942	1.31	132
11	3975	1.32	133
11	4005	1.33	134
11	4038	1.34	135
11	4068	1.35	136
11	4101	1.36	137
11	4131	1.37	138
11	4164	1.38	139
11	4194	1.39	140
11	4227	1.4	141
11	4257	1.41	142
11	4290	1.42	143
11	4320	1.43	144
11	4353	1.44	145
11	4383	1.45	146
11	4416	1.46	147
11	4446	1.47	148
11	4479	1.48	149
11	4509	1.49	150
11	4542	1.5	151
11	4577	1.51	152
11	4610	1.52	153
11	4640	1.53	154
11	4673	1.54	155
11	4703	1.55	156
11	4736	1.56	157
11	4766	1.57	158
11	4799	1.58	159
11	4829	1.59	160
11	4862	1.6	161
11	4892	1.61	162
11	4925	1.62	163
11	4955	1.63	164
11	4988	1.64	165
11	5018	1.65	166
11	5051	1.66	167
11	5081	1.67	168
11	5114	1.68	169
11	5144	1.69	170
11	5177	1.7	171
11	5207	1.71	172
11	5240	1.72	173
11	5270	1.73	174
11	5303	1.74	175
11	5333	1.75	176
11	5366	1.76	177
11	5395	1.77	178
11	5428	1.78	179
11	5457	1.79	180
11	5489	1.8	181
11	5518	1.81	182
11	5550	1.82	183
11	5577	1.83	184
11	5610	1.84	185
11	5637	1.85	186
11	5668	1.86	187
11	5697	1.87	188
11	5728	1.88	189
11	5755	1.89	190
11	5788	1.9	191
11	5815	1.91	192
11	5846	1.92	193
11	5875	1.93	194
11	5905	1.94	195
11	5931	1.95	196
11	5964	1.96	197
11	5989	1.97	198
11	6018	1.98	199
11	6047	1.99	200
11	6074	2	201
11	6102	2.01	202
11	6134	2.02	203
11	6156	2.03	204
11	6179	2.04	205
11	6207	2.05	206
11	6229	2.06	207
11	6247	2.07	208
11	6275	2.08	209
11	6292	2.09	210
11	6309	2.1	211
11	6334	2.11	212
11	6350	2.12	213
11	6365	2.13	214
11	6390	2.14	215
11	6405	2.15	216
11	6421	2.16	217
11	6444	2.17	218
11	6460	2.18	219
11	6475	2.19	220
11	6499	2.2	221
11	6514	2.21	222
11	6530	2.22	223
11	6552	2.23	224
11	6568	2.24	225
11	6583	2.25	226
11	6604	2.26	227
11	6619	2.27	228
11	6635	2.28	229
11	6655	2.29	230
11	6671	2.3	231
11	6686	2.31	232
11	6707	2.32	233
11	6722	2.33	234
11	6738	2.34	235
11	6756	2.35	236
11	6772	2.36	237
11	6787	2.37	238
11	6805	2.38	239
11	6820	2.39	240
11	6836	2.4	241
11	6854	2.41	242
11	6870	2.42	243
11	6885	2.43	244
11	6904	2.44	245
11	6919	2.45	246
11	6935	2.46	247
11	6952	2.47	248
11	6968	2.48	249
11	6983	2.49	250
11	7001	2.5	251
11	7021	2.51	252
11	7037	2.52	253
11	7054	2.53	254
11	7070	2.54	255
11	7085	2.55	256
11	7103	2.56	257
11	7118	2.57	258
11	7134	2.58	259
11	7150	2.59	260
11	7166	2.6	261
11	7181	2.61	262
11	7198	2.62	263
11	7213	2.63	264
11	7229	2.64	265
11	7245	2.65	266
11	7261	2.66	267
11	7276	2.67	268
11	7293	2.68	269
11	7308	2.69	270
11	7324	2.7	271
11	7339	2.71	272
11	7355	2.72	273
11	7370	2.73	274
11	7386	2.74	275
11	7401	2.75	276
11	7417	2.76	277
11	7432	2.77	278
11	7448	2.78	279
11	7463	2.79	280
11	7479	2.8	281
11	7494	2.81	282
11	7510	2.82	283
11	7525	2.83	284
11	7541	2.84	285
11	7556	2.85	286
11	7572	2.86	287
11	7587	2.87	288
11	7603	2.88	289
11	7618	2.89	290
11	7634	2.9	291
11	7649	2.91	292
11	7665	2.92	293
11	7680	2.93	294
11	7696	2.94	295
11	7711	2.95	296
11	7727	2.96	297
11	7742	2.97	298
11	7758	2.98	299
11	7773	2.99	300
11	7789	3	301
11	7809	3.01	302
11	7825	3.02	303
11	7840	3.03	304
11	7856	3.04	305
11	7871	3.05	306
11	7887	3.06	307
11	7902	3.07	308
11	7918	3.08	309
11	7933	3.09	310
11	7949	3.1	311
11	7964	3.11	312
11	7980	3.12	313
11	7995	3.13	314
11	8011	3.14	315
11	8026	3.15	316
11	8042	3.16	317
11	8057	3.17	318
11	8073	3.18	319
11	8088	3.19	320
11	8104	3.2	321
11	8119	3.21	322
11	8135	3.22	323
11	8150	3.23	324
11	8166	3.24	325
11	8181	3.25	326
11	8197	3.26	327
11	8212	3.27	328
11	8228	3.28	329
11	8243	3.29	330
11	8259	3.3	331
11	8274	3.31	332
11	8290	3.32	333
11	8305	3.33	334
11	8321	3.34	335
11	8336	3.35	336
11	8352	3.36	337
11	8367	3.37	338