version 2
run simpleNet-0-20181118-18:39:29-1965
attr configname simpleNet
attr datetime 20181118-18:39:29
attr experiment simpleNet
attr inifile omnetpp.ini
attr iterationvars ""
attr iterationvarsf ""
attr measurement ""
attr network simpleNet
attr processid 1965
attr repetition 0
attr replication #0
attr resultdir results
attr runnumber 0
attr seedset 0

vector 0 simpleNet.node[0] numInQueue:vector ETV
attr interpolationmode none
attr source numInQueue
attr title "total num in queue, vector"
vector 1 simpleNet.node[0] numProcessed:vector ETV
attr interpolationmode none
attr source numProcessed
attr title "num processing events in statRate time, vector"
vector 2 simpleNet.node[1] numInQueue:vector ETV
attr interpolationmode none
attr source numInQueue
attr title "total num in queue, vector"
vector 3 simpleNet.node[1] numProcessed:vector ETV
attr interpolationmode none
attr source numProcessed
attr title "num processing events in statRate time, vector"
vector 4 simpleNet.node[2] numInQueue:vector ETV
attr interpolationmode none
attr source numInQueue
attr title "total num in queue, vector"
vector 5 simpleNet.node[2] numProcessed:vector ETV
attr interpolationmode none
attr source numProcessed
attr title "num processing events in statRate time, vector"
vector 6 simpleNet.node[3] numInQueue:vector ETV
attr interpolationmode none
attr source numInQueue
attr title "total num in queue, vector"
vector 7 simpleNet.node[3] numProcessed:vector ETV
attr interpolationmode none
attr source numProcessed
attr title "num processing events in statRate time, vector"
vector 8 simpleNet.node[4] numInQueue:vector ETV
attr interpolationmode none
attr source numInQueue
attr title "total num in queue, vector"
vector 9 simpleNet.node[4] numProcessed:vector ETV
attr interpolationmode none
attr source numProcessed
attr title "num processing events in statRate time, vector"
vector 10 simpleNet.node[0] completionTime:vector ETV
attr interpolationmode none
attr source completionTime
attr title "completionTime, vector"
vector 11 simpleNet.node[1] completionTime:vector ETV
attr interpolationmode none
attr source completionTime
attr title "completionTime, vector"
vector 12 simpleNet.node[2] completionTime:vector ETV
attr interpolationmode none
attr source completionTime
attr title "completionTime, vector"
vector 13 simpleNet.node[3] completionTime:vector ETV
attr interpolationmode none
attr source completionTime
attr title "completionTime, vector"
vector 14 simpleNet.node[4] completionTime:vector ETV
attr interpolationmode none
attr source completionTime
attr title "completionTime, vector"
0	3	0	0
0	1200	0.5	0
0	2505	1	0
0	3414	1.5	0
0	4269	2	2
0	4923	2.5	52
0	5553	3	102
0	6183	3.5	152
0	6813	4	202
0	7443	4.5	252
0	8073	5	302
0	8703	5.5	352
0	9333	6	402
0	9963	6.5	452
0	10593	7	502
0	11223	7.5	552
0	11853	8	602
0	12483	8.5	652
0	13113	9	702
0	13743	9.5	752
0	14365	10	800
0	14406	10.5	800
1	3	0	0
1	1200	0.5	85
1	2505	1	100
1	3414	1.5	59
1	4269	2	50
1	4923	2.5	6
1	5553	3	0
1	6183	3.5	0
1	6813	4	0
1	7443	4.5	0
1	8073	5	0
1	8703	5.5	0
1	9333	6	0
1	9963	6.5	0
1	10593	7	0
1	11223	7.5	0
1	11853	8	0
1	12483	8.5	0
1	13113	9	0
1	13743	9.5	0
1	14365	10	0
1	14406	10.5	0
2	5	0	0
2	1201	0.5	0
2	2506	1	1
2	3415	1.5	51
2	4270	2	101
2	4924	2.5	151
2	5554	3	201
2	6184	3.5	251
2	6814	4	301
2	7444	4.5	351
2	8074	5	401
2	8704	5.5	451
2	9334	6	501
2	9964	6.5	551
2	10594	7	601
2	11224	7.5	651
2	11854	8	701
2	12484	8.5	751
2	13114	9	801
2	13744	9.5	851
2	14366	10	900
2	14407	10.5	900
3	5	0	0
3	1201	0.5	86
3	2506	1	100
3	3415	1.5	56
3	4270	2	50
3	4924	2.5	8
3	5554	3	0
3	6184	3.5	0
3	6814	4	0
3	7444	4.5	0
3	8074	5	0
3	8704	5.5	0
3	9334	6	0
3	9964	6.5	0
3	10594	7	0
3	11224	7.5	0
3	11854	8	0
3	12484	8.5	0
3	13114	9	0
3	13744	9.5	0
3	14366	10	0
3	14407	10.5	0
4	8	0	0
4	1202	0.5	0
4	2507	1	0
4	3416	1.5	0
4	4271	2	1
4	4925	2.5	26
4	5555	3	51
4	6185	3.5	76
4	6815	4	101
4	7445	4.5	126
4	8075	5	151
4	8705	5.5	176
4	9335	6	201
4	9965	6.5	226
4	10595	7	251
4	11225	7.5	276
4	11855	8	301
4	12485	8.5	326
4	13115	9	351
4	13745	9.5	376
4	14367	10	400
4	14408	10.5	400
5	8	0	0
5	1202	0.5	148
5	2507	1	175
5	3416	1.5	134
5	4271	2	125
5	4925	2.5	103
5	5555	3	100
5	6185	3.5	100
5	6815	4	100
5	7445	4.5	100
5	8075	5	100
5	8705	5.5	100
5	9335	6	100
5	9965	6.5	100
5	10595	7	100
5	11225	7.5	100
5	11855	8	100
5	12485	8.5	100
5	13115	9	100
5	13745	9.5	100
5	14367	10	100
5	14408	10.5	15
6	11	0	0
6	1203	0.5	0
6	2508	1	2
6	3417	1.5	102
6	4272	2	202
6	4926	2.5	302
6	5556	3	402
6	6186	3.5	502
6	6816	4	602
6	7446	4.5	702
6	8076	5	802
6	8706	5.5	902
6	9336	6	1002
6	9966	6.5	1102
6	10596	7	1202
6	11226	7.5	1302
6	11856	8	1402
6	12486	8.5	1502
6	13116	9	1602
6	13746	9.5	1702
6	14368	10	1800
6	14409	10.5	1800
7	11	0	0
7	1203	0.5	129
7	2508	1	150
7	3417	1.5	21
7	4272	2	0
7	4926	2.5	0
7	5556	3	0
7	6186	3.5	0
7	6816	4	0
7	7446	4.5	0
7	8076	5	0
7	8706	5.5	0
7	9336	6	0
7	9966	6.5	0
7	10596	7	0
7	11226	7.5	0
7	11856	8	0
7	12486	8.5	0
7	13116	9	0
7	13746	9.5	0
7	14368	10	0
7	14409	10.5	0
8	13	0	0
8	1204	0.5	0
8	2509	1	0
8	3418	1.5	0
8	4273	2	0
8	4927	2.5	0
8	5557	3	0
8	6187	3.5	0
8	6817	4	0
8	7447	4.5	0
8	8077	5	0
8	8707	5.5	0
8	9337	6	0
8	9967	6.5	0
8	10597	7	0
8	11227	7.5	0
8	11857	8	0
8	12487	8.5	0
8	13117	9	0
8	13747	9.5	0
8	14369	10	0
8	14410	10.5	0
9	13	0	0
9	1204	0.5	106
9	2509	1	125
9	3418	1.5	125
9	4273	2	125
9	4927	2.5	104
9	5557	3	100
9	6187	3.5	100
9	6817	4	100
9	7447	4.5	100
9	8077	5	100
9	8707	5.5	100
9	9337	6	100
9	9967	6.5	100
9	10597	7	100
9	11227	7.5	100
9	11857	8	100
9	12487	8.5	100
9	13117	9	100
9	13747	9.5	100
9	14369	10	100
9	14410	10.5	15
10	79	0.06	60
10	80	0.06	60
10	118	0.08	60
10	119	0.08	60
10	165	0.1	60
10	166	0.1	60
10	217	0.12	60
10	218	0.12	60
10	269	0.14	60
10	270	0.14	60
10	321	0.16	60
10	322	0.16	60
10	373	0.18	60
10	374	0.18	60
10	425	0.2	60
10	426	0.2	60
10	477	0.22	60
10	478	0.22	60
10	529	0.24	60
10	530	0.24	60
10	581	0.26	60
10	582	0.26	60
10	633	0.28	60
10	634	0.28	60
10	685	0.3	60
10	686	0.3	60
10	737	0.32	60
10	738	0.32	60
10	789	0.34	60
10	790	0.34	60
10	841	0.36	60
10	842	0.36	60
10	893	0.38	60
10	894	0.38	60
10	945	0.4	60
10	946	0.4	60
10	997	0.42	60
10	998	0.42	60
10	1049	0.44	60
10	1050	0.44	60
10	1101	0.46	60
10	1102	0.46	60
10	1153	0.48	60
10	1154	0.48	60
10	1210	0.5	60
10	1211	0.5	60
10	1262	0.52	60
10	1263	0.52	60
10	1314	0.54	60
10	1315	0.54	60
10	1366	0.56	60
10	1367	0.56	60
10	1418	0.58	60
10	1419	0.58	60
10	1470	0.6	60
10	1471	0.6	60
10	1522	0.62	60
10	1523	0.62	60
10	1574	0.64	60
10	1575	0.64	60
10	1626	0.66	60
10	1627	0.66	60
10	1678	0.68	60
10	1679	0.68	60
10	1730	0.7	60
10	1731	0.7	60
10	1782	0.72	60
10	1783	0.72	60
10	1834	0.74	60
10	1835	0.74	60
10	1886	0.76	60
10	1887	0.76	60
10	1938	0.78	60
10	1939	0.78	60
10	1990	0.8	60
10	1991	0.8	60
10	2042	0.82	60
10	2043	0.82	60
10	2094	0.84	60
10	2095	0.84	60
10	2146	0.86	60
10	2147	0.86	60
10	2198	0.88	60
10	2199	0.88	60
10	2250	0.9	60
10	2251	0.9	60
10	2302	0.92	60
10	2303	0.92	60
10	2354	0.94	60
10	2355	0.94	60
10	2406	0.96	60
10	2407	0.96	60
10	2458	0.98	60
10	2459	0.98	60
10	2515	1	60
10	2516	1	60
10	2567	1.02	60
10	2568	1.02	60
10	2613	1.04	60
10	2614	1.04	60
10	2659	1.06	60
10	2660	1.06	60
10	2699	1.08	60
10	2700	1.08	60
10	2736	1.1	60
10	2737	1.1	60
10	2770	1.12	60
10	2771	1.12	60
10	2804	1.14	60
10	2805	1.14	60
10	2838	1.16	60
10	2839	1.16	60
10	2872	1.18	60
10	2873	1.18	60
10	2906	1.2	60
10	2907	1.2	60
10	2940	1.22	60
10	2941	1.22	60
10	2974	1.24	60
10	2975	1.24	60
10	3008	1.26	60
10	3009	1.26	60
10	3042	1.28	60
10	3043	1.28	60
10	3076	1.3	60
10	3077	1.3	60
10	3110	1.32	60
10	3111	1.32	60
10	3144	1.34	60
10	3145	1.34	60
10	3178	1.36	60
10	3179	1.36	60
10	3212	1.38	60
10	3213	1.38	60
10	3246	1.4	60
10	3247	1.4	60
10	3280	1.42	60
10	3281	1.42	60
10	3314	1.44	60
10	3315	1.44	60
10	3348	1.46	60
10	3349	1.46	60
10	3382	1.48	60
10	3383	1.48	60
10	3421	1.5	60
10	3422	1.5	60
10	3455	1.52	60
10	3456	1.52	60
10	3489	1.54	60
10	3490	1.54	60
10	3523	1.56	60
10	3524	1.56	60
10	3557	1.58	60
10	3558	1.58	60
10	3591	1.6	60
10	3592	1.6	60
10	3625	1.62	60
10	3626	1.62	60
10	3659	1.64	60
10	3660	1.64	60
10	3693	1.66	60
10	3694	1.66	60
10	3727	1.68	60
10	3728	1.68	60
10	3761	1.7	60
10	3762	1.7	60
10	3795	1.72	60
10	3796	1.72	60
10	3829	1.74	60
10	3830	1.74	60
10	3863	1.76	60
10	3864	1.76	60
10	3897	1.78	60
10	3898	1.78	60
10	3931	1.8	60
10	3932	1.8	60
10	3965	1.82	60
10	3966	1.82	60
10	3999	1.84	60
10	4000	1.84	60
10	4033	1.86	60
10	4034	1.86	60
10	4067	1.88	60
10	4068	1.88	60
10	4101	1.9	60
10	4102	1.9	60
10	4135	1.92	60
10	4136	1.92	60
10	4169	1.94	60
10	4170	1.94	60
10	4203	1.96	60
10	4204	1.96	60
10	4237	1.98	60
10	4238	1.98	60
10	4276	2	60
10	4277	2	60
10	4310	2.02	60
10	4311	2.02	60
10	4341	2.04	60
10	4342	2.04	60
11	81	0.06	60
11	100	0.07	60
11	120	0.08	60
11	139	0.09	60
11	167	0.1	60
11	191	0.11	60
11	219	0.12	60
11	243	0.13	60
11	271	0.14	60
11	295	0.15	60
11	323	0.16	60
11	347	0.17	60
11	375	0.18	60
11	399	0.19	60
11	427	0.2	60
11	451	0.21	60
11	479	0.22	60
11	503	0.23	60
11	531	0.24	60
11	555	0.25	60
11	583	0.26	60
11	607	0.27	60
11	635	0.28	60
11	659	0.29	60
11	687	0.3	60
11	711	0.31	60
11	739	0.32	60
11	763	0.33	60
11	791	0.34	60
11	815	0.35	60
11	843	0.36	60
11	867	0.37	60
11	895	0.38	60
11	919	0.39	60
11	947	0.4	60
11	971	0.41	60
11	999	0.42	60
11	1023	0.43	60
11	1051	0.44	60
11	1075	0.45	60
11	1103	0.46	60
11	1127	0.47	60
11	1155	0.48	60
11	1179	0.49	60
11	1212	0.5	60
11	1236	0.51	60
11	1264	0.52	60
11	1288	0.53	60
11	1316	0.54	60
11	1340	0.55	60
11	1368	0.56	60
11	1392	0.57	60
11	1420	0.58	60
11	1444	0.59	60
11	1472	0.6	60
11	1496	0.61	60
11	1524	0.62	60
11	1548	0.63	60
11	1576	0.64	60
11	1600	0.65	60
11	1628	0.66	60
11	1652	0.67	60
11	1680	0.68	60
11	1704	0.69	60
11	1732	0.7	60
11	1756	0.71	60
11	1784	0.72	60
11	1808	0.73	60
11	1836	0.74	60
11	1860	0.75	60
11	1888	0.76	60
11	1912	0.77	60
11	1940	0.78	60
11	1964	0.79	60
11	1992	0.8	60
11	2016	0.81	60
11	2044	0.82	60
11	2068	0.83	60
11	2096	0.84	60
11	2120	0.85	60
11	2148	0.86	60
11	2172	0.87	60
11	2200	0.88	60
11	2224	0.89	60
11	2252	0.9	60
11	2276	0.91	60
11	2304	0.92	60
11	2328	0.93	60
11	2356	0.94	60
11	2380	0.95	60
11	2408	0.96	60
11	2432	0.97	60
11	2460	0.98	60
11	2484	0.99	60
11	2517	1	60
11	2541	1.01	60
11	2569	1.02	60
11	2590	1.03	60
11	2615	1.04	60
11	2636	1.05	60
12	82	0.06	60
12	83	0.06	60
12	101	0.07	60
12	121	0.08	60
12	122	0.08	60
12	140	0.09	60
12	168	0.1	60
12	169	0.1	60
12	192	0.11	60
12	220	0.12	60
12	221	0.12	60
12	244	0.13	60
12	272	0.14	60
12	273	0.14	60
12	296	0.15	60
12	324	0.16	60
12	325	0.16	60
12	348	0.17	60
12	376	0.18	60
12	377	0.18	60
12	400	0.19	60
12	428	0.2	60
12	429	0.2	60
12	452	0.21	60
12	480	0.22	60
12	481	0.22	60
12	504	0.23	60
12	532	0.24	60
12	533	0.24	60
12	556	0.25	60
12	584	0.26	60
12	585	0.26	60
12	608	0.27	60
12	636	0.28	60
12	637	0.28	60
12	660	0.29	60
12	688	0.3	60
12	689	0.3	60
12	712	0.31	60
12	740	0.32	60
12	741	0.32	60
12	764	0.33	60
12	792	0.34	60
12	793	0.34	60
12	816	0.35	60
12	844	0.36	60
12	845	0.36	60
12	868	0.37	60
12	896	0.38	60
12	897	0.38	60
12	920	0.39	60
12	948	0.4	60
12	949	0.4	60
12	972	0.41	60
12	1000	0.42	60
12	1001	0.42	60
12	1024	0.43	60
12	1052	0.44	60
12	1053	0.44	60
12	1076	0.45	60
12	1104	0.46	60
12	1105	0.46	60
12	1128	0.47	60
12	1156	0.48	60
12	1157	0.48	60
12	1180	0.49	60
12	1213	0.5	60
12	1214	0.5	60
12	1237	0.51	60
12	1265	0.52	60
12	1266	0.52	60
12	1289	0.53	60
12	1317	0.54	60
12	1318	0.54	60
12	1341	0.55	60
12	1369	0.56	60
12	1370	0.56	60
12	1393	0.57	60
12	1421	0.58	60
12	1422	0.58	60
12	1445	0.59	60
12	1473	0.6	60
12	1474	0.6	60
12	1497	0.61	60
12	1525	0.62	60
12	1526	0.62	60
12	1549	0.63	60
12	1577	0.64	60
12	1578	0.64	60
12	1601	0.65	60
12	1629	0.66	60
12	1630	0.66	60
12	1653	0.67	60
12	1681	0.68	60
12	1682	0.68	60
12	1705	0.69	60
12	1733	0.7	60
12	1734	0.7	60
12	1757	0.71	60
12	1785	0.72	60
12	1786	0.72	60
12	1809	0.73	60
12	1837	0.74	60
12	1838	0.74	60
12	1861	0.75	60
12	1889	0.76	60
12	1890	0.76	60
12	1913	0.77	60
12	1941	0.78	60
12	1942	0.78	60
12	1965	0.79	60
12	1993	0.8	60
12	1994	0.8	60
12	2017	0.81	60
12	2045	0.82	60
12	2046	0.82	60
12	2069	0.83	60
12	2097	0.84	60
12	2098	0.84	60
12	2121	0.85	60
12	2149	0.86	60
12	2150	0.86	60
12	2173	0.87	60
12	2201	0.88	60
12	2202	0.88	60
12	2225	0.89	60
12	2253	0.9	60
12	2254	0.9	60
12	2277	0.91	60
12	2305	0.92	60
12	2306	0.92	60
12	2329	0.93	60
12	2357	0.94	60
12	2358	0.94	60
12	2381	0.95	60
12	2409	0.96	60
12	2410	0.96	60
12	2433	0.97	60
12	2461	0.98	60
12	2462	0.98	60
12	2485	0.99	60
12	2518	1	60
12	2519	1	60
12	2542	1.01	60
12	2570	1.02	60
12	2571	1.02	60
12	2591	1.03	60
12	2616	1.04	60
12	2617	1.04	60
12	2637	1.05	60
12	2661	1.06	60
12	2662	1.06	60
12	2679	1.07	60
12	2701	1.08	60
12	2702	1.08	60
12	2719	1.09	60
12	2738	1.1	60
12	2739	1.1	60
12	2753	1.11	60
12	2772	1.12	60
12	2773	1.12	60
12	2787	1.13	60
12	2806	1.14	60
12	2807	1.14	60
12	2821	1.15	60
12	2840	1.16	60
12	2841	1.16	60
12	2855	1.17	60
12	2874	1.18	60
12	2875	1.18	60
12	2889	1.19	60
12	2908	1.2	60
12	2909	1.2	60
12	2923	1.21	60
12	2942	1.22	60
12	2943	1.22	60
12	2957	1.23	60
12	2976	1.24	60
12	2977	1.24	60
12	2991	1.25	60
12	3010	1.26	60
12	3011	1.26	60
12	3025	1.27	60
12	3044	1.28	60
12	3045	1.28	60
12	3059	1.29	60
12	3078	1.3	60
12	3079	1.3	60
12	3093	1.31	60
12	3112	1.32	60
12	3113	1.32	60
12	3127	1.33	60
12	3146	1.34	60
12	3147	1.34	60
12	3161	1.35	60
12	3180	1.36	60
12	3181	1.36	60
12	3195	1.37	60
12	3214	1.38	60
12	3215	1.38	60
12	3229	1.39	60
12	3248	1.4	60
12	3249	1.4	60
12	3263	1.41	60
12	3282	1.42	60
12	3283	1.42	60
12	3297	1.43	60
12	3316	1.44	60
12	3317	1.44	60
12	3331	1.45	60
12	3350	1.46	60
12	3351	1.46	60
12	3365	1.47	60
12	3384	1.48	60
12	3385	1.48	60
12	3399	1.49	60
12	3423	1.5	60
12	3424	1.5	60
12	3438	1.51	60
12	3457	1.52	60
12	3458	1.52	60
12	3472	1.53	60
12	3491	1.54	60
12	3492	1.54	60
12	3506	1.55	60
12	3525	1.56	60
12	3526	1.56	60
12	3540	1.57	60
12	3559	1.58	60
12	3560	1.58	60
12	3574	1.59	60
12	3593	1.6	60
12	3594	1.6	60
12	3608	1.61	60
12	3627	1.62	60
12	3628	1.62	60
12	3642	1.63	60
12	3661	1.64	60
12	3662	1.64	60
12	3676	1.65	60
12	3695	1.66	60
12	3696	1.66	60
12	3710	1.67	60
12	3729	1.68	60
12	3730	1.68	60
12	3744	1.69	60
12	3763	1.7	60
12	3764	1.7	60
12	3778	1.71	60
12	3797	1.72	60
12	3798	1.72	60
12	3812	1.73	60
12	3831	1.74	60
12	3832	1.74	60
12	3846	1.75	60
12	3865	1.76	60
12	3866	1.76	60
12	3880	1.77	60
12	3899	1.78	60
12	3900	1.78	60
12	3914	1.79	60
12	3933	1.8	60
12	3934	1.8	60
12	3948	1.81	60
12	3967	1.82	60
12	3968	1.82	60
12	3982	1.83	60
12	4001	1.84	60
12	4002	1.84	60
12	4016	1.85	60
12	4035	1.86	60
12	4036	1.86	60
12	4050	1.87	60
12	4069	1.88	60
12	4070	1.88	60
12	4084	1.89	60
12	4103	1.9	60
12	4104	1.9	60
12	4118	1.91	60
12	4137	1.92	60
12	4138	1.92	60
12	4152	1.93	60
12	4171	1.94	60
12	4172	1.94	60
12	4186	1.95	60
12	4205	1.96	60
12	4206	1.96	60
12	4220	1.97	60
12	4239	1.98	60
12	4240	1.98	60
12	4254	1.99	60
12	4278	2	60
12	4279	2	60
12	4293	2.01	60
12	4312	2.02	60
12	4313	2.02	60
12	4324	2.03	60
12	4343	2.04	60
12	4344	2.04	60
12	4355	2.05	60
12	4372	2.06	60
12	4383	2.07	60
12	4400	2.08	60
12	4411	2.09	60
12	4425	2.1	60
12	4436	2.11	60
12	4450	2.12	60
12	4461	2.13	60
12	4475	2.14	60
12	4486	2.15	60
12	4500	2.16	60
12	4511	2.17	60
12	4525	2.18	60
12	4536	2.19	60
12	4550	2.2	60
12	4561	2.21	60
12	4575	2.22	60
12	4586	2.23	60
12	4600	2.24	60
12	4611	2.25	60
12	4625	2.26	60
12	4636	2.27	60
12	4650	2.28	60
12	4661	2.29	60
12	4675	2.3	60
12	4686	2.31	60
12	4700	2.32	60
12	4711	2.33	60
12	4725	2.34	60
12	4736	2.35	60
12	4750	2.36	60
12	4761	2.37	60
12	4775	2.38	60
12	4786	2.39	60
12	4800	2.4	60
12	4811	2.41	60
12	4825	2.42	60
12	4836	2.43	60
12	4850	2.44	60
12	4861	2.45	60
12	4875	2.46	60
12	4886	2.47	60
12	4900	2.48	60
12	4911	2.49	60
12	4930	2.5	60
12	4941	2.51	60
12	4955	2.52	60
12	4966	2.53	60
12	4980	2.54	60
12	4991	2.55	60
12	5005	2.56	60
12	5016	2.57	60
12	5030	2.58	60
12	5041	2.59	60
12	5055	2.6	60
12	5066	2.61	60
12	5080	2.62	60
12	5091	2.63	60
12	5105	2.64	60
12	5116	2.65	60
12	5130	2.66	60
12	5141	2.67	60
12	5155	2.68	60
12	5166	2.69	60
12	5180	2.7	60
12	5191	2.71	60
12	5205	2.72	60
12	5216	2.73	60
12	5230	2.74	60
12	5241	2.75	60
12	5255	2.76	60
12	5266	2.77	60
12	5280	2.78	60
12	5291	2.79	60
12	5305	2.8	60
12	5316	2.81	60
12	5330	2.82	60
12	5341	2.83	60
12	5355	2.84	60
12	5366	2.85	60
12	5380	2.86	60
12	5391	2.87	60
12	5405	2.88	60
12	5416	2.89	60
12	5430	2.9	60
12	5441	2.91	60
12	5455	2.92	60
12	5466	2.93	60
12	5480	2.94	60
12	5491	2.95	60
12	5505	2.96	60
12	5516	2.97	60
12	5530	2.98	60
12	5541	2.99	60
12	5560	3	60
12	5571	3.01	60
12	5585	3.02	60
12	5596	3.03	60
12	5610	3.04	60
12	5621	3.05	60
12	5635	3.06	60
12	5646	3.07	60
12	5660	3.08	60
12	5671	3.09	60
12	5685	3.1	60
12	5696	3.11	60
12	5710	3.12	60
12	5721	3.13	60
12	5735	3.14	60
12	5746	3.15	60
12	5760	3.16	60
12	5771	3.17	60
12	5785	3.18	60
12	5796	3.19	60
12	5810	3.2	60
12	5821	3.21	60
12	5835	3.22	60
12	5846	3.23	60
12	5860	3.24	60
12	5871	3.25	60
12	5885	3.26	60
12	5896	3.27	60
12	5910	3.28	60
12	5921	3.29	60
12	5935	3.3	60
12	5946	3.31	60
12	5960	3.32	60
12	5971	3.33	60
12	5985	3.34	60
12	5996	3.35	60
12	6010	3.36	60
12	6021	3.37	60
12	6035	3.38	60
12	6046	3.39	60
12	6060	3.4	60
12	6071	3.41	60
12	6085	3.42	60
12	6096	3.43	60
12	6110	3.44	60
12	6121	3.45	60
12	6135	3.46	60
12	6146	3.47	60
12	6160	3.48	60
12	6171	3.49	60
12	6190	3.5	60
12	6201	3.51	60
12	6215	3.52	60
12	6226	3.53	60
12	6240	3.54	60
12	6251	3.55	60
12	6265	3.56	60
12	6276	3.57	60
12	6290	3.58	60
12	6301	3.59	60
12	6315	3.6	60
12	6326	3.61	60
12	6340	3.62	60
12	6351	3.63	60
12	6365	3.64	60
12	6376	3.65	60
12	6390	3.66	60
12	6401	3.67	60
12	6415	3.68	60
12	6426	3.69	60
12	6440	3.7	60
12	6451	3.71	60
12	6465	3.72	60
12	6476	3.73	60
12	6490	3.74	60
12	6501	3.75	60
12	6515	3.76	60
12	6526	3.77	60
12	6540	3.78	60
12	6551	3.79	60
12	6565	3.8	60
12	6576	3.81	60
12	6590	3.82	60
12	6601	3.83	60
12	6615	3.84	60
12	6626	3.85	60
12	6640	3.86	60
12	6651	3.87	60
12	6665	3.88	60
12	6676	3.89	60
12	6690	3.9	60
12	6701	3.91	60
12	6715	3.92	60
12	6726	3.93	60
12	6740	3.94	60
12	6751	3.95	60
12	6765	3.96	60
12	6776	3.97	60
12	6790	3.98	60
12	6801	3.99	60
12	6820	4	60
12	6831	4.01	60
12	6845	4.02	60
12	6856	4.03	60
12	6870	4.04	60
12	6881	4.05	60
12	6895	4.06	60
12	6906	4.07	60
12	6920	4.08	60
12	6931	4.09	60
12	6945	4.1	60
12	6956	4.11	60
12	6970	4.12	60
12	6981	4.13	60
12	6995	4.14	60
12	7006	4.15	60
12	7020	4.16	60
12	7031	4.17	60
12	7045	4.18	60
12	7056	4.19	60
12	7070	4.2	60
12	7081	4.21	60
12	7095	4.22	60
12	7106	4.23	60
12	7120	4.24	60
12	7131	4.25	60
12	7145	4.26	60
12	7156	4.27	60
12	7170	4.28	60
12	7181	4.29	60
12	7195	4.3	60
12	7206	4.31	60
12	7220	4.32	60
12	7231	4.33	60
12	7245	4.34	60
12	7256	4.35	60
12	7270	4.36	60
12	7281	4.37	60
12	7295	4.38	60
12	7306	4.39	60
12	7320	4.4	60
12	7331	4.41	60
12	7345	4.42	60
12	7356	4.43	60
12	7370	4.44	60
12	7381	4.45	60
12	7395	4.46	60
12	7406	4.47	60
12	7420	4.48	60
12	7431	4.49	60
12	7450	4.5	60
12	7461	4.51	60
12	7475	4.52	60
12	7486	4.53	60
12	7500	4.54	60
12	7511	4.55	60
12	7525	4.56	60
12	7536	4.57	60
12	7550	4.58	60
12	7561	4.59	60
12	7575	4.6	60
12	7586	4.61	60
12	7600	4.62	60
12	7611	4.63	60
12	7625	4.64	60
12	7636	4.65	60
12	7650	4.66	60
12	7661	4.67	60
12	7675	4.68	60
12	7686	4.69	60
12	7700	4.7	60
12	7711	4.71	60
12	7725	4.72	60
12	7736	4.73	60
12	7750	4.74	60
12	7761	4.75	60
12	7775	4.76	60
12	7786	4.77	60
12	7800	4.78	60
12	7811	4.79	60
12	7825	4.8	60
12	7836	4.81	60
12	7850	4.82	60
12	7861	4.83	60
12	7875	4.84	60
12	7886	4.85	60
12	7900	4.86	60
12	7911	4.87	60
12	7925	4.88	60
12	7936	4.89	60
12	7950	4.9	60
12	7961	4.91	60
12	7975	4.92	60
12	7986	4.93	60
12	8000	4.94	60
12	8011	4.95	60
12	8025	4.96	60
12	8036	4.97	60
12	8050	4.98	60
12	8061	4.99	60
12	8080	5	60
12	8091	5.01	60
12	8105	5.02	60
12	8116	5.03	60
12	8130	5.04	60
12	8141	5.05	60
12	8155	5.06	60
12	8166	5.07	60
12	8180	5.08	60
12	8191	5.09	60
12	8205	5.1	60
12	8216	5.11	60
12	8230	5.12	60
12	8241	5.13	60
12	8255	5.14	60
12	8266	5.15	60
12	8280	5.16	60
12	8291	5.17	60
12	8305	5.18	60
12	8316	5.19	60
12	8330	5.2	60
12	8341	5.21	60
12	8355	5.22	60
12	8366	5.23	60
12	8380	5.24	60
12	8391	5.25	60
12	8405	5.26	60
12	8416	5.27	60
12	8430	5.28	60
12	8441	5.29	60
12	8455	5.3	60
12	8466	5.31	60
12	8480	5.32	60
12	8491	5.33	60
12	8505	5.34	60
12	8516	5.35	60
12	8530	5.36	60
12	8541	5.37	60
12	8555	5.38	60
12	8566	5.39	60
12	8580	5.4	60
12	8591	5.41	60
12	8605	5.42	60
12	8616	5.43	60
12	8630	5.44	60
12	8641	5.45	60
12	8655	5.46	60
12	8666	5.47	60
12	8680	5.48	60
12	8691	5.49	60
12	8710	5.5	60
12	8721	5.51	60
12	8735	5.52	60
12	8746	5.53	60
12	8760	5.54	60
12	8771	5.55	60
12	8785	5.56	60
12	8796	5.57	60
12	8810	5.58	60
12	8821	5.59	60
12	8835	5.6	60
12	8846	5.61	60
12	8860	5.62	60
12	8871	5.63	60
12	8885	5.64	60
12	8896	5.65	60
12	8910	5.66	60
12	8921	5.67	60
12	8935	5.68	60
12	8946	5.69	60
12	8960	5.7	60
12	8971	5.71	60
12	8985	5.72	60
12	8996	5.73	60
12	9010	5.74	60
12	9021	5.75	60
12	9035	5.76	60
12	9046	5.77	60
12	9060	5.78	60
12	9071	5.79	60
12	9085	5.8	60
12	9096	5.81	60
12	9110	5.82	60
12	9121	5.83	60
12	9135	5.84	60
12	9146	5.85	60
12	9160	5.86	60
12	9171	5.87	60
12	9185	5.88	60
12	9196	5.89	60
12	9210	5.9	60
12	9221	5.91	60
12	9235	5.92	60
12	9246	5.93	60
12	9260	5.94	60
12	9271	5.95	60
12	9285	5.96	60
12	9296	5.97	60
12	9310	5.98	60
12	9321	5.99	60
12	9340	6	60
12	9351	6.01	60
12	9365	6.02	60
12	9376	6.03	60
12	9390	6.04	60
12	9401	6.05	60
12	9415	6.06	60
12	9426	6.07	60
12	9440	6.08	60
12	9451	6.09	60
12	9465	6.1	60
12	9476	6.11	60
12	9490	6.12	60
12	9501	6.13	60
12	9515	6.14	60
12	9526	6.15	60
12	9540	6.16	60
12	9551	6.17	60
12	9565	6.18	60
12	9576	6.19	60
12	9590	6.2	60
12	9601	6.21	60
12	9615	6.22	60
12	9626	6.23	60
12	9640	6.24	60
12	9651	6.25	60
12	9665	6.26	60
12	9676	6.27	60
12	9690	6.28	60
12	9701	6.29	60
12	9715	6.3	60
12	9726	6.31	60
12	9740	6.32	60
12	9751	6.33	60
12	9765	6.34	60
12	9776	6.35	60
12	9790	6.36	60
12	9801	6.37	60
12	9815	6.38	60
12	9826	6.39	60
12	9840	6.4	60
12	9851	6.41	60
12	9865	6.42	60
12	9876	6.43	60
12	9890	6.44	60
12	9901	6.45	60
12	9915	6.46	60
12	9926	6.47	60
12	9940	6.48	60
12	9951	6.49	60
12	9970	6.5	60
12	9981	6.51	60
12	9995	6.52	60
12	10006	6.53	60
12	10020	6.54	60
12	10031	6.55	60
12	10045	6.56	60
12	10056	6.57	60
12	10070	6.58	60
12	10081	6.59	60
12	10095	6.6	60
12	10106	6.61	60
12	10120	6.62	60
12	10131	6.63	60
12	10145	6.64	60
12	10156	6.65	60
12	10170	6.66	60
12	10181	6.67	60
12	10195	6.68	60
12	10206	6.69	60
12	10220	6.7	60
12	10231	6.71	60
12	10245	6.72	60
12	10256	6.73	60
12	10270	6.74	60
12	10281	6.75	60
12	10295	6.76	60
12	10306	6.77	60
12	10320	6.78	60
12	10331	6.79	60
12	10345	6.8	60
12	10356	6.81	60
12	10370	6.82	60
12	10381	6.83	60
12	10395	6.84	60
12	10406	6.85	60
12	10420	6.86	60
12	10431	6.87	60
12	10445	6.88	60
12	10456	6.89	60
12	10470	6.9	60
12	10481	6.91	60
12	10495	6.92	60
12	10506	6.93	60
12	10520	6.94	60
12	10531	6.95	60
12	10545	6.96	60
12	10556	6.97	60
12	10570	6.98	60
12	10581	6.99	60
12	10600	7	60
12	10611	7.01	60
12	10625	7.02	60
12	10636	7.03	60
12	10650	7.04	60
12	10661	7.05	60
12	10675	7.06	60
12	10686	7.07	60
12	10700	7.08	60
12	10711	7.09	60
12	10725	7.1	60
12	10736	7.11	60
12	10750	7.12	60
12	10761	7.13	60
12	10775	7.14	60
12	10786	7.15	60
12	10800	7.16	60
12	10811	7.17	60
12	10825	7.18	60
12	10836	7.19	60
12	10850	7.2	60
12	10861	7.21	60
12	10875	7.22	60
12	10886	7.23	60
12	10900	7.24	60
12	10911	7.25	60
12	10925	7.26	60
12	10936	7.27	60
12	10950	7.28	60
12	10961	7.29	60
12	10975	7.3	60
12	10986	7.31	60
12	11000	7.32	60
12	11011	7.33	60
12	11025	7.34	60
12	11036	7.35	60
12	11050	7.36	60
12	11061	7.37	60
12	11075	7.38	60
12	11086	7.39	60
12	11100	7.4	60
12	11111	7.41	60
12	11125	7.42	60
12	11136	7.43	60
12	11150	7.44	60
12	11161	7.45	60
12	11175	7.46	60
12	11186	7.47	60
12	11200	7.48	60
12	11211	7.49	60
12	11230	7.5	60
12	11241	7.51	60
12	11255	7.52	60
12	11266	7.53	60
12	11280	7.54	60
12	11291	7.55	60
12	11305	7.56	60
12	11316	7.57	60
12	11330	7.58	60
12	11341	7.59	60
12	11355	7.6	60
12	11366	7.61	60
12	11380	7.62	60
12	11391	7.63	60
12	11405	7.64	60
12	11416	7.65	60
12	11430	7.66	60
12	11441	7.67	60
12	11455	7.68	60
12	11466	7.69	60
12	11480	7.7	60
12	11491	7.71	60
12	11505	7.72	60
12	11516	7.73	60
12	11530	7.74	60
12	11541	7.75	60
12	11555	7.76	60
12	11566	7.77	60
12	11580	7.78	60
12	11591	7.79	60
12	11605	7.8	60
12	11616	7.81	60
12	11630	7.82	60
12	11641	7.83	60
12	11655	7.84	60
12	11666	7.85	60
12	11680	7.86	60
12	11691	7.87	60
12	11705	7.88	60
12	11716	7.89	60
12	11730	7.9	60
12	11741	7.91	60
12	11755	7.92	60
12	11766	7.93	60
12	11780	7.94	60
12	11791	7.95	60
12	11805	7.96	60
12	11816	7.97	60
12	11830	7.98	60
12	11841	7.99	60
12	11860	8	60
12	11871	8.01	60
12	11885	8.02	60
12	11896	8.03	60
12	11910	8.04	60
12	11921	8.05	60
12	11935	8.06	60
12	11946	8.07	60
12	11960	8.08	60
12	11971	8.09	60
12	11985	8.1	60
12	11996	8.11	60
12	12010	8.12	60
12	12021	8.13	60
12	12035	8.14	60
12	12046	8.15	60
12	12060	8.16	60
12	12071	8.17	60
12	12085	8.18	60
12	12096	8.19	60
12	12110	8.2	60
12	12121	8.21	60
12	12135	8.22	60
12	12146	8.23	60
12	12160	8.24	60
12	12171	8.25	60
12	12185	8.26	60
12	12196	8.27	60
12	12210	8.28	60
12	12221	8.29	60
12	12235	8.3	60
12	12246	8.31	60
12	12260	8.32	60
12	12271	8.33	60
12	12285	8.34	60
12	12296	8.35	60
12	12310	8.36	60
12	12321	8.37	60
12	12335	8.38	60
12	12346	8.39	60
12	12360	8.4	60
12	12371	8.41	60
12	12385	8.42	60
12	12396	8.43	60
12	12410	8.44	60
12	12421	8.45	60
12	12435	8.46	60
12	12446	8.47	60
12	12460	8.48	60
12	12471	8.49	60
12	12490	8.5	60
12	12501	8.51	60
12	12515	8.52	60
12	12526	8.53	60
12	12540	8.54	60
12	12551	8.55	60
12	12565	8.56	60
12	12576	8.57	60
12	12590	8.58	60
12	12601	8.59	60
12	12615	8.6	60
12	12626	8.61	60
12	12640	8.62	60
12	12651	8.63	60
12	12665	8.64	60
12	12676	8.65	60
12	12690	8.66	60
12	12701	8.67	60
12	12715	8.68	60
12	12726	8.69	60
12	12740	8.7	60
12	12751	8.71	60
12	12765	8.72	60
12	12776	8.73	60
12	12790	8.74	60
12	12801	8.75	60
12	12815	8.76	60
12	12826	8.77	60
12	12840	8.78	60
12	12851	8.79	60
12	12865	8.8	60
12	12876	8.81	60
12	12890	8.82	60
12	12901	8.83	60
12	12915	8.84	60
12	12926	8.85	60
12	12940	8.86	60
12	12951	8.87	60
12	12965	8.88	60
12	12976	8.89	60
12	12990	8.9	60
12	13001	8.91	60
12	13015	8.92	60
12	13026	8.93	60
12	13040	8.94	60
12	13051	8.95	60
12	13065	8.96	60
12	13076	8.97	60
12	13090	8.98	60
12	13101	8.99	60
12	13120	9	60
12	13131	9.01	60
12	13145	9.02	60
12	13156	9.03	60
12	13170	9.04	60
12	13181	9.05	60
12	13195	9.06	60
12	13206	9.07	60
12	13220	9.08	60
12	13231	9.09	60
12	13245	9.1	60
12	13256	9.11	60
12	13270	9.12	60
12	13281	9.13	60
12	13295	9.14	60
12	13306	9.15	60
12	13320	9.16	60
12	13331	9.17	60
12	13345	9.18	60
12	13356	9.19	60
12	13370	9.2	60
12	13381	9.21	60
12	13395	9.22	60
12	13406	9.23	60
12	13420	9.24	60
12	13431	9.25	60
12	13445	9.26	60
12	13456	9.27	60
12	13470	9.28	60
12	13481	9.29	60
12	13495	9.3	60
12	13506	9.31	60
12	13520	9.32	60
12	13531	9.33	60
12	13545	9.34	60
12	13556	9.35	60
12	13570	9.36	60
12	13581	9.37	60
12	13595	9.38	60
12	13606	9.39	60
12	13620	9.4	60
12	13631	9.41	60
12	13645	9.42	60
12	13656	9.43	60
12	13670	9.44	60
12	13681	9.45	60
12	13695	9.46	60
12	13706	9.47	60
12	13720	9.48	60
12	13731	9.49	60
12	13750	9.5	60
12	13761	9.51	60
12	13775	9.52	60
12	13786	9.53	60
12	13800	9.54	60
12	13811	9.55	60
12	13825	9.56	60
12	13836	9.57	60
12	13850	9.58	60
12	13861	9.59	60
12	13875	9.6	60
12	13886	9.61	60
12	13900	9.62	60
12	13911	9.63	60
12	13925	9.64	60
12	13936	9.65	60
12	13950	9.66	60
12	13961	9.67	60
12	13975	9.68	60
12	13986	9.69	60
12	14000	9.7	60
12	14011	9.71	60
12	14025	9.72	60
12	14036	9.73	60
12	14050	9.74	60
12	14061	9.75	60
12	14075	9.76	60
12	14086	9.77	60
12	14100	9.78	60
12	14111	9.79	60
12	14125	9.8	60
12	14136	9.81	60
12	14150	9.82	60
12	14161	9.83	60
12	14175	9.84	60
12	14186	9.85	60
12	14200	9.86	60
12	14211	9.87	60
12	14225	9.88	60
12	14236	9.89	60
12	14250	9.9	60
12	14261	9.91	60
12	14275	9.92	60
12	14286	9.93	60
12	14300	9.94	60
12	14311	9.95	60
12	14325	9.96	60
12	14336	9.97	60
12	14350	9.98	60
12	14361	9.99	60
12	14372	10	60
12	14378	10.01	60
12	14384	10.02	60
12	14388	10.03	60
12	14392	10.04	60
12	14396	10.05	60
13	84	0.06	60
13	85	0.06	60
13	102	0.07	60
13	103	0.07	60
13	123	0.08	60
13	124	0.08	60
13	141	0.09	60
13	142	0.09	60
13	170	0.1	60
13	171	0.1	60
13	193	0.11	60
13	194	0.11	60
13	222	0.12	60
13	223	0.12	60
13	245	0.13	60
13	246	0.13	60
13	274	0.14	60
13	275	0.14	60
13	297	0.15	60
13	298	0.15	60
13	326	0.16	60
13	327	0.16	60
13	349	0.17	60
13	350	0.17	60
13	378	0.18	60
13	379	0.18	60
13	401	0.19	60
13	402	0.19	60
13	430	0.2	60
13	431	0.2	60
13	453	0.21	60
13	454	0.21	60
13	482	0.22	60
13	483	0.22	60
13	505	0.23	60
13	506	0.23	60
13	534	0.24	60
13	535	0.24	60
13	557	0.25	60
13	558	0.25	60
13	586	0.26	60
13	587	0.26	60
13	609	0.27	60
13	610	0.27	60
13	638	0.28	60
13	639	0.28	60
13	661	0.29	60
13	662	0.29	60
13	690	0.3	60
13	691	0.3	60
13	713	0.31	60
13	714	0.31	60
13	742	0.32	60
13	743	0.32	60
13	765	0.33	60
13	766	0.33	60
13	794	0.34	60
13	795	0.34	60
13	817	0.35	60
13	818	0.35	60
13	846	0.36	60
13	847	0.36	60
13	869	0.37	60
13	870	0.37	60
13	898	0.38	60
13	899	0.38	60
13	921	0.39	60
13	922	0.39	60
13	950	0.4	60
13	951	0.4	60
13	973	0.41	60
13	974	0.41	60
13	1002	0.42	60
13	1003	0.42	60
13	1025	0.43	60
13	1026	0.43	60
13	1054	0.44	60
13	1055	0.44	60
13	1077	0.45	60
13	1078	0.45	60
13	1106	0.46	60
13	1107	0.46	60
13	1129	0.47	60
13	1130	0.47	60
13	1158	0.48	60
13	1159	0.48	60
13	1181	0.49	60
13	1182	0.49	60
13	1215	0.5	60
13	1216	0.5	60
13	1238	0.51	60
13	1239	0.51	60
13	1267	0.52	60
13	1268	0.52	60
13	1290	0.53	60
13	1291	0.53	60
13	1319	0.54	60
13	1320	0.54	60
13	1342	0.55	60
13	1343	0.55	60
13	1371	0.56	60
13	1372	0.56	60
13	1394	0.57	60
13	1395	0.57	60
13	1423	0.58	60
13	1424	0.58	60
13	1446	0.59	60
13	1447	0.59	60
13	1475	0.6	60
13	1476	0.6	60
13	1498	0.61	60
13	1499	0.61	60
13	1527	0.62	60
13	1528	0.62	60
13	1550	0.63	60
13	1551	0.63	60
13	1579	0.64	60
13	1580	0.64	60
13	1602	0.65	60
13	1603	0.65	60
13	1631	0.66	60
13	1632	0.66	60
13	1654	0.67	60
13	1655	0.67	60
13	1683	0.68	60
13	1684	0.68	60
13	1706	0.69	60
13	1707	0.69	60
13	1735	0.7	60
13	1736	0.7	60
13	1758	0.71	60