version 2
run simpleNet-0-20181107-05:12:12-31181
attr configname simpleNet
attr datetime 20181107-05:12:12
attr experiment simpleNet
attr inifile omnetpp.ini
attr iterationvars ""
attr iterationvarsf ""
attr measurement ""
attr network simpleNet
attr processid 31181
attr repetition 0
attr replication #0
attr resultdir results
attr runnumber 0
attr seedset 0

vector 0 simpleNet.node[0] numInQueue:vector ETV
attr interpolationmode none
attr source numInQueue
attr title "total num in queue, vector"
vector 1 simpleNet.node[0] numProcessed:vector ETV
attr interpolationmode none
attr source numProcessed
attr title "num processed in statRate time, vector"
vector 2 simpleNet.node[1] numInQueue:vector ETV
attr interpolationmode none
attr source numInQueue
attr title "total num in queue, vector"
vector 3 simpleNet.node[1] numProcessed:vector ETV
attr interpolationmode none
attr source numProcessed
attr title "num processed in statRate time, vector"
vector 4 simpleNet.node[2] numInQueue:vector ETV
attr interpolationmode none
attr source numInQueue
attr title "total num in queue, vector"
vector 5 simpleNet.node[2] numProcessed:vector ETV
attr interpolationmode none
attr source numProcessed
attr title "num processed in statRate time, vector"
vector 6 simpleNet.node[3] numInQueue:vector ETV
attr interpolationmode none
attr source numInQueue
attr title "total num in queue, vector"
vector 7 simpleNet.node[3] numProcessed:vector ETV
attr interpolationmode none
attr source numProcessed
attr title "num processed in statRate time, vector"
vector 8 simpleNet.node[0] completionTime:vector ETV
attr interpolationmode none
attr source completionTime
attr title "completionTime, vector"
vector 9 simpleNet.node[3] completionTime:vector ETV
attr interpolationmode none
attr source completionTime
attr title "completionTime, vector"
0	2	0	0
0	141	0.5	0
0	305	1	0
0	469	1.5	0
0	633	2	0
0	797	2.5	0
0	961	3	0
0	1125	3.5	0
0	1289	4	0
0	1453	4.5	0
0	1617	5	0
0	1781	5.5	0
0	1945	6	0
0	2109	6.5	0
0	2273	7	0
0	2437	7.5	0
0	2601	8	0
0	2765	8.5	0
0	2929	9	0
0	3093	9.5	0
0	3255	10	0
0	3285	10.5	0
1	2	0	0
1	141	0.5	12
1	305	1	16
1	469	1.5	16
1	633	2	16
1	797	2.5	16
1	961	3	16
1	1125	3.5	16
1	1289	4	16
1	1453	4.5	16
1	1617	5	16
1	1781	5.5	16
1	1945	6	16
1	2109	6.5	16
1	2273	7	16
1	2437	7.5	16
1	2601	8	16
1	2765	8.5	16
1	2929	9	16
1	3093	9.5	16
1	3255	10	16
1	3285	10.5	4
2	3	0	0
2	142	0.5	0
2	306	1	0
2	470	1.5	0
2	634	2	0
2	798	2.5	0
2	962	3	0
2	1126	3.5	0
2	1290	4	0
2	1454	4.5	0
2	1618	5	0
2	1782	5.5	0
2	1946	6	0
2	2110	6.5	0
2	2274	7	0
2	2438	7.5	0
2	2602	8	0
2	2766	8.5	0
2	2930	9	0
2	3094	9.5	0
2	3256	10	0
2	3286	10.5	0
3	3	0	0
3	142	0.5	24
3	306	1	32
3	470	1.5	32
3	634	2	32
3	798	2.5	32
3	962	3	32
3	1126	3.5	32
3	1290	4	32
3	1454	4.5	32
3	1618	5	32
3	1782	5.5	32
3	1946	6	32
3	2110	6.5	32
3	2274	7	32
3	2438	7.5	32
3	2602	8	32
3	2766	8.5	32
3	2930	9	32
3	3094	9.5	32
3	3256	10	32
3	3286	10.5	8
4	4	0	0
4	143	0.5	0
4	307	1	0
4	471	1.5	0
4	635	2	0
4	799	2.5	0
4	963	3	0
4	1127	3.5	0
4	1291	4	0
4	1455	4.5	0
4	1619	5	0
4	1783	5.5	0
4	1947	6	0
4	2111	6.5	0
4	2275	7	0
4	2439	7.5	0
4	2603	8	0
4	2767	8.5	0
4	2931	9	0
4	3095	9.5	0
4	3257	10	0
4	3287	10.5	0
5	4	0	0
5	143	0.5	24
5	307	1	32
5	471	1.5	32
5	635	2	32
5	799	2.5	32
5	963	3	32
5	1127	3.5	32
5	1291	4	32
5	1455	4.5	32
5	1619	5	32
5	1783	5.5	32
5	1947	6	32
5	2111	6.5	32
5	2275	7	32
5	2439	7.5	32
5	2603	8	32
5	2767	8.5	32
5	2931	9	32
5	3095	9.5	32
5	3257	10	32
5	3287	10.5	8
6	6	0	0
6	144	0.5	0
6	308	1	0
6	472	1.5	0
6	636	2	0
6	800	2.5	0
6	964	3	0
6	1128	3.5	0
6	1292	4	0
6	1456	4.5	0
6	1620	5	0
6	1784	5.5	0
6	1948	6	0
6	2112	6.5	0
6	2276	7	0
6	2440	7.5	0
6	2604	8	0
6	2768	8.5	0
6	2932	9	0
6	3096	9.5	0
6	3258	10	0
6	3288	10.5	0
7	6	0	0
7	144	0.5	12
7	308	1	16
7	472	1.5	16
7	636	2	16
7	800	2.5	16
7	964	3	16
7	1128	3.5	16
7	1292	4	16
7	1456	4.5	16
7	1620	5	16
7	1784	5.5	16
7	1948	6	16
7	2112	6.5	16
7	2276	7	16
7	2440	7.5	16
7	2604	8	16
7	2768	8.5	16
7	2932	9	16
7	3096	9.5	16
7	3258	10	16
7	3288	10.5	4
8	32	0.18	0.18
8	52	0.2425	0.18
8	72	0.305	0.18
8	92	0.3675	0.18
8	112	0.43	0.18
8	132	0.4925	0.18
8	156	0.555	0.18
8	176	0.6175	0.18
8	196	0.68	0.18
8	216	0.7425	0.18
8	236	0.805	0.18
8	256	0.8675	0.18
8	276	0.93	0.18
8	296	0.9925	0.18
8	320	1.055	0.18
8	340	1.1175	0.18
8	360	1.18	0.18
8	380	1.2425	0.18
8	400	1.305	0.18
8	420	1.3675	0.18
8	440	1.43	0.18
8	460	1.4925	0.18
8	484	1.555	0.18
8	504	1.6175	0.18
8	524	1.68	0.18
8	544	1.7425	0.18
8	564	1.805	0.18
8	584	1.8675	0.18
8	604	1.93	0.18
8	624	1.9925	0.18
8	648	2.055	0.18
8	668	2.1175	0.18
8	688	2.18	0.18
8	708	2.2425	0.18
8	728	2.305	0.18
8	748	2.3675	0.18
8	768	2.43	0.18
8	788	2.4925	0.18
8	812	2.555	0.18
8	832	2.6175	0.18
8	852	2.68	0.18
8	872	2.7425	0.18
8	892	2.805	0.18
8	912	2.8675	0.18
8	932	2.93	0.18
8	952	2.9925	0.18
8	976	3.055	0.18
8	996	3.1175	0.18
8	1016	3.18	0.18
8	1036	3.2425	0.18
8	1056	3.305	0.18
8	1076	3.3675	0.18
8	1096	3.43	0.18
8	1116	3.4925	0.18
8	1140	3.555	0.18
8	1160	3.6175	0.18
8	1180	3.68	0.18
8	1200	3.7425	0.18
8	1220	3.805	0.18
8	1240	3.8675	0.18
8	1260	3.93	0.18
8	1280	3.9925	0.18
8	1304	4.055	0.18
8	1324	4.1175	0.18
8	1344	4.18	0.18
8	1364	4.2425	0.18
8	1384	4.305	0.18
8	1404	4.3675	0.18
8	1424	4.43	0.18
8	1444	4.4925	0.18
8	1468	4.555	0.18
8	1488	4.6175	0.18
8	1508	4.68	0.18
8	1528	4.7425	0.18
8	1548	4.805	0.18
8	1568	4.8675	0.18
8	1588	4.93	0.18
8	1608	4.9925	0.18
8	1632	5.055	0.18
8	1652	5.1175	0.18
8	1672	5.18	0.18
8	1692	5.2425	0.18
8	1712	5.305	0.18
8	1732	5.3675	0.18
8	1752	5.43	0.18
8	1772	5.4925	0.18
8	1796	5.555	0.18
8	1816	5.6175	0.18
8	1836	5.68	0.18
8	1856	5.7425	0.18
8	1876	5.805	0.18
8	1896	5.8675	0.18
8	1916	5.93	0.18
8	1936	5.9925	0.18
8	1960	6.055	0.18
8	1980	6.1175	0.18
8	2000	6.18	0.18
8	2020	6.2425	0.18
8	2040	6.305	0.18
8	2060	6.3675	0.18
8	2080	6.43	0.18
8	2100	6.4925	0.18
8	2124	6.555	0.18
8	2144	6.6175	0.18
8	2164	6.68	0.18
8	2184	6.7425	0.18
8	2204	6.805	0.18
8	2224	6.8675	0.18
8	2244	6.93	0.18
8	2264	6.9925	0.18
8	2288	7.055	0.18
8	2308	7.1175	0.18
8	2328	7.18	0.18
8	2348	7.2425	0.18
8	2368	7.305	0.18
8	2388	7.3675	0.18
8	2408	7.43	0.18
8	2428	7.4925	0.18
8	2452	7.555	0.18
8	2472	7.6175	0.18
8	2492	7.68	0.18
8	2512	7.7425	0.18
8	2532	7.805	0.18
8	2552	7.8675	0.18
8	2572	7.93	0.18
8	2592	7.9925	0.18
8	2616	8.055	0.18
8	2636	8.1175	0.18
8	2656	8.18	0.18
8	2676	8.2425	0.18
8	2696	8.305	0.18
8	2716	8.3675	0.18
8	2736	8.43	0.18
8	2756	8.4925	0.18
8	2780	8.555	0.18
8	2800	8.6175	0.18
8	2820	8.68	0.18
8	2840	8.7425	0.18
8	2860	8.805	0.18
8	2880	8.8675	0.18
8	2900	8.93	0.18
8	2920	8.9925	0.18
8	2944	9.055	0.18
8	2964	9.1175	0.18
8	2984	9.18	0.18
8	3004	9.2425	0.18
8	3024	9.305	0.18
8	3044	9.3675	0.18
8	3064	9.43	0.18
8	3084	9.4925	0.18
8	3108	9.555	0.18
8	3128	9.6175	0.18
8	3148	9.68	0.18
8	3168	9.7425	0.18
8	3188	9.805	0.18
8	3208	9.8675	0.18
8	3228	9.93	0.18
8	3248	9.9925	0.18
8	3268	10.055	0.18
8	3280	10.1175	0.18
9	34	0.18	0.18
9	54	0.2425	0.18
9	74	0.305	0.18
9	94	0.3675	0.18
9	114	0.43	0.18
9	134	0.4925	0.18
9	158	0.555	0.18
9	178	0.6175	0.18
9	198	0.68	0.18
9	218	0.7425	0.18
9	238	0.805	0.18
9	258	0.8675	0.18
9	278	0.93	0.18
9	298	0.9925	0.18
9	322	1.055	0.18
9	342	1.1175	0.18
9	362	1.18	0.18
9	382	1.2425	0.18
9	402	1.305	0.18
9	422	1.3675	0.18
9	442	1.43	0.18
9	462	1.4925	0.18
9	486	1.555	0.18
9	506	1.6175	0.18
9	526	1.68	0.18
9	546	1.7425	0.18
9	566	1.805	0.18
9	586	1.8675	0.18
9	606	1.93	0.18
9	626	1.9925	0.18
9	650	2.055	0.18
9	670	2.1175	0.18
9	690	2.18	0.18
9	710	2.2425	0.18
9	730	2.305	0.18
9	750	2.3675	0.18
9	770	2.43	0.18
9	790	2.4925	0.18
9	814	2.555	0.18
9	834	2.6175	0.18
9	854	2.68	0.18
9	874	2.7425	0.18
9	894	2.805	0.18
9	914	2.8675	0.18
9	934	2.93	0.18
9	954	2.9925	0.18
9	978	3.055	0.18
9	998	3.1175	0.18
9	1018	3.18	0.18
9	1038	3.2425	0.18
9	1058	3.305	0.18
9	1078	3.3675	0.18
9	1098	3.43	0.18
9	1118	3.4925	0.18
9	1142	3.555	0.18
9	1162	3.6175	0.18
9	1182	3.68	0.18
9	1202	3.7425	0.18
9	1222	3.805	0.18
9	1242	3.8675	0.18
9	1262	3.93	0.18
9	1282	3.9925	0.18
9	1306	4.055	0.18
9	1326	4.1175	0.18
9	1346	4.18	0.18
9	1366	4.2425	0.18
9	1386	4.305	0.18
9	1406	4.3675	0.18
9	1426	4.43	0.18
9	1446	4.4925	0.18
9	1470	4.555	0.18
9	1490	4.6175	0.18
9	1510	4.68	0.18
9	1530	4.7425	0.18
9	1550	4.805	0.18
9	1570	4.8675	0.18
9	1590	4.93	0.18
9	1610	4.9925	0.18
9	1634	5.055	0.18
9	1654	5.1175	0.18
9	1674	5.18	0.18
9	1694	5.2425	0.18
9	1714	5.305	0.18
9	1734	5.3675	0.18
9	1754	5.43	0.18
9	1774	5.4925	0.18
9	1798	5.555	0.18
9	1818	5.6175	0.18
9	1838	5.68	0.18
9	1858	5.7425	0.18
9	1878	5.805	0.18
9	1898	5.8675	0.18
9	1918	5.93	0.18
9	1938	5.9925	0.18
9	1962	6.055	0.18
9	1982	6.1175	0.18
9	2002	6.18	0.18
9	2022	6.2425	0.18
9	2042	6.305	0.18
9	2062	6.3675	0.18
9	2082	6.43	0.18
9	2102	6.4925	0.18
9	2126	6.555	0.18
9	2146	6.6175	0.18
9	2166	6.68	0.18
9	2186	6.7425	0.18
9	2206	6.805	0.18
9	2226	6.8675	0.18
9	2246	6.93	0.18
9	2266	6.9925	0.18
9	2290	7.055	0.18
9	2310	7.1175	0.18
9	2330	7.18	0.18
9	2350	7.2425	0.18
9	2370	7.305	0.18
9	2390	7.3675	0.18
9	2410	7.43	0.18
9	2430	7.4925	0.18
9	2454	7.555	0.18
9	2474	7.6175	0.18
9	2494	7.68	0.18
9	2514	7.7425	0.18
9	2534	7.805	0.18
9	2554	7.8675	0.18
9	2574	7.93	0.18
9	2594	7.9925	0.18
9	2618	8.055	0.18
9	2638	8.1175	0.18
9	2658	8.18	0.18
9	2678	8.2425	0.18
9	2698	8.305	0.18
9	2718	8.3675	0.18
9	2738	8.43	0.18
9	2758	8.4925	0.18
9	2782	8.555	0.18
9	2802	8.6175	0.18
9	2822	8.68	0.18
9	2842	8.7425	0.18
9	2862	8.805	0.18
9	2882	8.8675	0.18
9	2902	8.93	0.18
9	2922	8.9925	0.18
9	2946	9.055	0.18
9	2966	9.1175	0.18
9	2986	9.18	0.18
9	3006	9.2425	0.18
9	3026	9.305	0.18
9	3046	9.3675	0.18
9	3066	9.43	0.18
9	3086	9.4925	0.18
9	3110	9.555	0.18
9	3130	9.6175	0.18
9	3150	9.68	0.18
9	3170	9.7425	0.18
9	3190	9.805	0.18
9	3210	9.8675	0.18
9	3230	9.93	0.18
9	3250	9.9925	0.18
9	3270	10.055	0.18
9	3282	10.1175	0.18

