version 2
run simpleNet-0-20181107-05:18:53-31243
attr configname simpleNet
attr datetime 20181107-05:18:53
attr experiment simpleNet
attr inifile omnetpp.ini
attr iterationvars ""
attr iterationvarsf ""
attr measurement ""
attr network simpleNet
attr processid 31243
attr repetition 0
attr replication #0
attr resultdir results
attr runnumber 0
attr seedset 0

vector 0 simpleNet.node[0] numInQueue:vector ETV
attr interpolationmode none
attr source numInQueue
attr title "total num in queue, vector"
vector 1 simpleNet.node[0] numProcessed:vector ETV
attr interpolationmode none
attr source numProcessed
attr title "num processed in statRate time, vector"
vector 2 simpleNet.node[1] numInQueue:vector ETV
attr interpolationmode none
attr source numInQueue
attr title "total num in queue, vector"
vector 3 simpleNet.node[1] numProcessed:vector ETV
attr interpolationmode none
attr source numProcessed
attr title "num processed in statRate time, vector"
vector 4 simpleNet.node[2] numInQueue:vector ETV
attr interpolationmode none
attr source numInQueue
attr title "total num in queue, vector"
vector 5 simpleNet.node[2] numProcessed:vector ETV
attr interpolationmode none
attr source numProcessed
attr title "num processed in statRate time, vector"
vector 6 simpleNet.node[3] numInQueue:vector ETV
attr interpolationmode none
attr source numInQueue
attr title "total num in queue, vector"
vector 7 simpleNet.node[3] numProcessed:vector ETV
attr interpolationmode none
attr source numProcessed
attr title "num processed in statRate time, vector"
vector 8 simpleNet.node[0] completionTime:vector ETV
attr interpolationmode none
attr source completionTime
attr title "completionTime, vector"
vector 9 simpleNet.node[3] completionTime:vector ETV
attr interpolationmode none
attr source completionTime
attr title "completionTime, vector"
0	2	0	0
0	773	0.5	0
0	1777	1	0
0	2781	1.5	0
0	3785	2	0
0	4789	2.5	0
0	5793	3	0
0	6797	3.5	0
0	7801	4	0
0	8805	4.5	0
0	9809	5	0
0	10813	5.5	0
0	11817	6	0
0	12821	6.5	0
0	13825	7	0
0	14829	7.5	0
0	15833	8	0
0	16837	8.5	0
0	17841	9	0
0	18845	9.5	0
0	19847	10	0
0	20085	10.5	0
1	2	0	0
1	773	0.5	67
1	1777	1	100
1	2781	1.5	100
1	3785	2	100
1	4789	2.5	100
1	5793	3	100
1	6797	3.5	100
1	7801	4	100
1	8805	4.5	100
1	9809	5	100
1	10813	5.5	100
1	11817	6	100
1	12821	6.5	100
1	13825	7	100
1	14829	7.5	100
1	15833	8	100
1	16837	8.5	100
1	17841	9	100
1	18845	9.5	100
1	19847	10	100
1	20085	10.5	33
2	3	0	0
2	774	0.5	0
2	1778	1	0
2	2782	1.5	0
2	3786	2	0
2	4790	2.5	0
2	5794	3	0
2	6798	3.5	0
2	7802	4	0
2	8806	4.5	0
2	9810	5	0
2	10814	5.5	0
2	11818	6	0
2	12822	6.5	0
2	13826	7	0
2	14830	7.5	0
2	15834	8	0
2	16838	8.5	0
2	17842	9	0
2	18846	9.5	0
2	19848	10	0
2	20086	10.5	0
3	3	0	0
3	774	0.5	134
3	1778	1	200
3	2782	1.5	200
3	3786	2	200
3	4790	2.5	200
3	5794	3	200
3	6798	3.5	200
3	7802	4	200
3	8806	4.5	200
3	9810	5	200
3	10814	5.5	200
3	11818	6	200
3	12822	6.5	200
3	13826	7	200
3	14830	7.5	200
3	15834	8	200
3	16838	8.5	200
3	17842	9	200
3	18846	9.5	200
3	19848	10	200
3	20086	10.5	66
4	4	0	0
4	775	0.5	0
4	1779	1	0
4	2783	1.5	0
4	3787	2	0
4	4791	2.5	0
4	5795	3	0
4	6799	3.5	0
4	7803	4	0
4	8807	4.5	0
4	9811	5	0
4	10815	5.5	0
4	11819	6	0
4	12823	6.5	0
4	13827	7	0
4	14831	7.5	0
4	15835	8	0
4	16839	8.5	0
4	17843	9	0
4	18847	9.5	0
4	19849	10	0
4	20087	10.5	0
5	4	0	0
5	775	0.5	134
5	1779	1	200
5	2783	1.5	200
5	3787	2	200
5	4791	2.5	200
5	5795	3	200
5	6799	3.5	200
5	7803	4	200
5	8807	4.5	200
5	9811	5	200
5	10815	5.5	200
5	11819	6	200
5	12823	6.5	200
5	13827	7	200
5	14831	7.5	200
5	15835	8	200
5	16839	8.5	200
5	17843	9	200
5	18847	9.5	200
5	19849	10	200
5	20087	10.5	66
6	6	0	0
6	776	0.5	0
6	1780	1	0
6	2784	1.5	0
6	3788	2	0
6	4792	2.5	0
6	5796	3	0
6	6800	3.5	0
6	7804	4	0
6	8808	4.5	0
6	9812	5	0
6	10816	5.5	0
6	11820	6	0
6	12824	6.5	0
6	13828	7	0
6	14832	7.5	0
6	15836	8	0
6	16840	8.5	0
6	17844	9	0
6	18848	9.5	0
6	19850	10	0
6	20088	10.5	0
7	6	0	0
7	776	0.5	67
7	1780	1	100
7	2784	1.5	100
7	3788	2	100
7	4792	2.5	100
7	5796	3	100
7	6800	3.5	100
7	7804	4	100
7	8808	4.5	100
7	9812	5	100
7	10816	5.5	100
7	11820	6	100
7	12824	6.5	100
7	13828	7	100
7	14832	7.5	100
7	15836	8	100
7	16840	8.5	100
7	17844	9	100
7	18848	9.5	100
7	19850	10	100
7	20088	10.5	33
8	152	0.18	0.18
8	170	0.19	0.18
8	188	0.2	0.18
8	206	0.21	0.18
8	226	0.22	0.18
8	246	0.23	0.18
8	266	0.24	0.18
8	286	0.25	0.18
8	306	0.26	0.18
8	326	0.27	0.18
8	346	0.28	0.18
8	366	0.29	0.18
8	386	0.3	0.18
8	406	0.31	0.18
8	426	0.32	0.18
8	446	0.33	0.18
8	466	0.34	0.18
8	486	0.35	0.18
8	506	0.36	0.18
8	526	0.37	0.18
8	546	0.38	0.18
8	566	0.39	0.18
8	586	0.4	0.18
8	606	0.41	0.18
8	626	0.42	0.18
8	646	0.43	0.18
8	666	0.44	0.18
8	686	0.45	0.18
8	706	0.46	0.18
8	726	0.47	0.18
8	746	0.48	0.18
8	766	0.49	0.18
8	790	0.5	0.18
8	810	0.51	0.18
8	830	0.52	0.18
8	850	0.53	0.18
8	870	0.54	0.18
8	890	0.55	0.18
8	910	0.56	0.18
8	930	0.57	0.18
8	950	0.58	0.18
8	970	0.59	0.18
8	990	0.6	0.18
8	1010	0.61	0.18
8	1030	0.62	0.18
8	1050	0.63	0.18
8	1070	0.64	0.18
8	1090	0.65	0.18
8	1110	0.66	0.18
8	1130	0.67	0.18
8	1150	0.68	0.18
8	1170	0.69	0.18
8	1190	0.7	0.18
8	1210	0.71	0.18
8	1230	0.72	0.18
8	1250	0.73	0.18
8	1270	0.74	0.18
8	1290	0.75	0.18
8	1310	0.76	0.18
8	1330	0.77	0.18
8	1350	0.78	0.18
8	1370	0.79	0.18
8	1390	0.8	0.18
8	1410	0.81	0.18
8	1430	0.82	0.18
8	1450	0.83	0.18
8	1470	0.84	0.18
8	1490	0.85	0.18
8	1510	0.86	0.18
8	1530	0.87	0.18
8	1550	0.88	0.18
8	1570	0.89	0.18
8	1590	0.9	0.18
8	1610	0.91	0.18
8	1630	0.92	0.18
8	1650	0.93	0.18
8	1670	0.94	0.18
8	1690	0.95	0.18
8	1710	0.96	0.18
8	1730	0.97	0.18
8	1750	0.98	0.18
8	1770	0.99	0.18
8	1794	1	0.18
8	1814	1.01	0.18
8	1834	1.02	0.18
8	1854	1.03	0.18
8	1874	1.04	0.18
8	1894	1.05	0.18
8	1914	1.06	0.18
8	1934	1.07	0.18
8	1954	1.08	0.18
8	1974	1.09	0.18
8	1994	1.1	0.18
8	2014	1.11	0.18
8	2034	1.12	0.18
8	2054	1.13	0.18
8	2074	1.14	0.18
8	2094	1.15	0.18
8	2114	1.16	0.18
8	2134	1.17	0.18
8	2154	1.18	0.18
8	2174	1.19	0.18
8	2194	1.2	0.18
8	2214	1.21	0.18
8	2234	1.22	0.18
8	2254	1.23	0.18
8	2274	1.24	0.18
8	2294	1.25	0.18
8	2314	1.26	0.18
8	2334	1.27	0.18
8	2354	1.28	0.18
8	2374	1.29	0.18
8	2394	1.3	0.18
8	2414	1.31	0.18
8	2434	1.32	0.18
8	2454	1.33	0.18
8	2474	1.34	0.18
8	2494	1.35	0.18
8	2514	1.36	0.18
8	2534	1.37	0.18
8	2554	1.38	0.18
8	2574	1.39	0.18
8	2594	1.4	0.18
8	2614	1.41	0.18
8	2634	1.42	0.18
8	2654	1.43	0.18
8	2674	1.44	0.18
8	2694	1.45	0.18
8	2714	1.46	0.18
8	2734	1.47	0.18
8	2754	1.48	0.18
8	2774	1.49	0.18
8	2798	1.5	0.18
8	2818	1.51	0.18
8	2838	1.52	0.18
8	2858	1.53	0.18
8	2878	1.54	0.18
8	2898	1.55	0.18
8	2918	1.56	0.18
8	2938	1.57	0.18
8	2958	1.58	0.18
8	2978	1.59	0.18
8	2998	1.6	0.18
8	3018	1.61	0.18
8	3038	1.62	0.18
8	3058	1.63	0.18
8	3078	1.64	0.18
8	3098	1.65	0.18
8	3118	1.66	0.18
8	3138	1.67	0.18
8	3158	1.68	0.18
8	3178	1.69	0.18
8	3198	1.7	0.18
8	3218	1.71	0.18
8	3238	1.72	0.18
8	3258	1.73	0.18
8	3278	1.74	0.18
8	3298	1.75	0.18
8	3318	1.76	0.18
8	3338	1.77	0.18
8	3358	1.78	0.18
8	3378	1.79	0.18
8	3398	1.8	0.18
8	3418	1.81	0.18
8	3438	1.82	0.18
8	3458	1.83	0.18
8	3478	1.84	0.18
8	3498	1.85	0.18
8	3518	1.86	0.18
8	3538	1.87	0.18
8	3558	1.88	0.18
8	3578	1.89	0.18
8	3598	1.9	0.18
8	3618	1.91	0.18
8	3638	1.92	0.18
8	3658	1.93	0.18
8	3678	1.94	0.18
8	3698	1.95	0.18
8	3718	1.96	0.18
8	3738	1.97	0.18
8	3758	1.98	0.18
8	3778	1.99	0.18
8	3802	2	0.18
8	3822	2.01	0.18
8	3842	2.02	0.18
8	3862	2.03	0.18
8	3882	2.04	0.18
8	3902	2.05	0.18
8	3922	2.06	0.18
8	3942	2.07	0.18
8	3962	2.08	0.18
8	3982	2.09	0.18
8	4002	2.1	0.18
8	4022	2.11	0.18
8	4042	2.12	0.18
8	4062	2.13	0.18
8	4082	2.14	0.18
8	4102	2.15	0.18
8	4122	2.16	0.18
8	4142	2.17	0.18
8	4162	2.18	0.18
8	4182	2.19	0.18
8	4202	2.2	0.18
8	4222	2.21	0.18
8	4242	2.22	0.18
8	4262	2.23	0.18
8	4282	2.24	0.18
8	4302	2.25	0.18
8	4322	2.26	0.18
8	4342	2.27	0.18
8	4362	2.28	0.18
8	4382	2.29	0.18
8	4402	2.3	0.18
8	4422	2.31	0.18
8	4442	2.32	0.18
8	4462	2.33	0.18
8	4482	2.34	0.18
8	4502	2.35	0.18
8	4522	2.36	0.18
8	4542	2.37	0.18
8	4562	2.38	0.18
8	4582	2.39	0.18
8	4602	2.4	0.18
8	4622	2.41	0.18
8	4642	2.42	0.18
8	4662	2.43	0.18
8	4682	2.44	0.18
8	4702	2.45	0.18
8	4722	2.46	0.18
8	4742	2.47	0.18
8	4762	2.48	0.18
8	4782	2.49	0.18
8	4806	2.5	0.18
8	4826	2.51	0.18
8	4846	2.52	0.18
8	4866	2.53	0.18
8	4886	2.54	0.18
8	4906	2.55	0.18
8	4926	2.56	0.18
8	4946	2.57	0.18
8	4966	2.58	0.18
8	4986	2.59	0.18
8	5006	2.6	0.18
8	5026	2.61	0.18
8	5046	2.62	0.18
8	5066	2.63	0.18
8	5086	2.64	0.18
8	5106	2.65	0.18
8	5126	2.66	0.18
8	5146	2.67	0.18
8	5166	2.68	0.18
8	5186	2.69	0.18
8	5206	2.7	0.18
8	5226	2.71	0.18
8	5246	2.72	0.18
8	5266	2.73	0.18
8	5286	2.74	0.18
8	5306	2.75	0.18
8	5326	2.76	0.18
8	5346	2.77	0.18
8	5366	2.78	0.18
8	5386	2.79	0.18
8	5406	2.8	0.18
8	5426	2.81	0.18
8	5446	2.82	0.18
8	5466	2.83	0.18
8	5486	2.84	0.18
8	5506	2.85	0.18
8	5526	2.86	0.18
8	5546	2.87	0.18
8	5566	2.88	0.18
8	5586	2.89	0.18
8	5606	2.9	0.18
8	5626	2.91	0.18
8	5646	2.92	0.18
8	5666	2.93	0.18
8	5686	2.94	0.18
8	5706	2.95	0.18
8	5726	2.96	0.18
8	5746	2.97	0.18
8	5766	2.98	0.18
8	5786	2.99	0.18
8	5810	3	0.18
8	5830	3.01	0.18
8	5850	3.02	0.18
8	5870	3.03	0.18
8	5890	3.04	0.18
8	5910	3.05	0.18
8	5930	3.06	0.18
8	5950	3.07	0.18
8	5970	3.08	0.18
8	5990	3.09	0.18
8	6010	3.1	0.18
8	6030	3.11	0.18
8	6050	3.12	0.18
8	6070	3.13	0.18
8	6090	3.14	0.18
8	6110	3.15	0.18
8	6130	3.16	0.18
8	6150	3.17	0.18
8	6170	3.18	0.18
8	6190	3.19	0.18
8	6210	3.2	0.18
8	6230	3.21	0.18
8	6250	3.22	0.18
8	6270	3.23	0.18
8	6290	3.24	0.18
8	6310	3.25	0.18
8	6330	3.26	0.18
8	6350	3.27	0.18
8	6370	3.28	0.18
8	6390	3.29	0.18
8	6410	3.3	0.18
8	6430	3.31	0.18
8	6450	3.32	0.18
8	6470	3.33	0.18
8	6490	3.34	0.18
8	6510	3.35	0.18
8	6530	3.36	0.18
8	6550	3.37	0.18
8	6570	3.38	0.18
8	6590	3.39	0.18
8	6610	3.4	0.18
8	6630	3.41	0.18
8	6650	3.42	0.18
8	6670	3.43	0.18
8	6690	3.44	0.18
8	6710	3.45	0.18
8	6730	3.46	0.18
8	6750	3.47	0.18
8	6770	3.48	0.18
8	6790	3.49	0.18
8	6814	3.5	0.18
8	6834	3.51	0.18
8	6854	3.52	0.18
8	6874	3.53	0.18
8	6894	3.54	0.18
8	6914	3.55	0.18
8	6934	3.56	0.18
8	6954	3.57	0.18
8	6974	3.58	0.18
8	6994	3.59	0.18
8	7014	3.6	0.18
8	7034	3.61	0.18
8	7054	3.62	0.18
8	7074	3.63	0.18
8	7094	3.64	0.18
8	7114	3.65	0.18
8	7134	3.66	0.18
8	7154	3.67	0.18
8	7174	3.68	0.18
8	7194	3.69	0.18
8	7214	3.7	0.18
8	7234	3.71	0.18
8	7254	3.72	0.18
8	7274	3.73	0.18
8	7294	3.74	0.18
8	7314	3.75	0.18
8	7334	3.76	0.18
8	7354	3.77	0.18
8	7374	3.78	0.18
8	7394	3.79	0.18
8	7414	3.8	0.18
8	7434	3.81	0.18
8	7454	3.82	0.18
8	7474	3.83	0.18
8	7494	3.84	0.18
8	7514	3.85	0.18
8	7534	3.86	0.18
8	7554	3.87	0.18
8	7574	3.88	0.18
8	7594	3.89	0.18
8	7614	3.9	0.18
8	7634	3.91	0.18
8	7654	3.92	0.18
8	7674	3.93	0.18
8	7694	3.94	0.18
8	7714	3.95	0.18
8	7734	3.96	0.18
8	7754	3.97	0.18
8	7774	3.98	0.18
8	7794	3.99	0.18
8	7818	4	0.18
8	7838	4.01	0.18
8	7858	4.02	0.18
8	7878	4.03	0.18
8	7898	4.04	0.18
8	7918	4.05	0.18
8	7938	4.06	0.18
8	7958	4.07	0.18
8	7978	4.08	0.18
8	7998	4.09	0.18
8	8018	4.1	0.18
8	8038	4.11	0.18
8	8058	4.12	0.18
8	8078	4.13	0.18
8	8098	4.14	0.18
8	8118	4.15	0.18
8	8138	4.16	0.18
8	8158	4.17	0.18
8	8178	4.18	0.18
8	8198	4.19	0.18
8	8218	4.2	0.18
8	8238	4.21	0.18
8	8258	4.22	0.18
8	8278	4.23	0.18
8	8298	4.24	0.18
8	8318	4.25	0.18
8	8338	4.26	0.18
8	8358	4.27	0.18
8	8378	4.28	0.18
8	8398	4.29	0.18
8	8418	4.3	0.18
8	8438	4.31	0.18
8	8458	4.32	0.18
8	8478	4.33	0.18
8	8498	4.34	0.18
8	8518	4.35	0.18
8	8538	4.36	0.18
8	8558	4.37	0.18
8	8578	4.38	0.18
8	8598	4.39	0.18
8	8618	4.4	0.18
8	8638	4.41	0.18
8	8658	4.42	0.18
8	8678	4.43	0.18
8	8698	4.44	0.18
8	8718	4.45	0.18
8	8738	4.46	0.18
8	8758	4.47	0.18
8	8778	4.48	0.18
8	8798	4.49	0.18
8	8822	4.5	0.18
8	8842	4.51	0.18
8	8862	4.52	0.18
8	8882	4.53	0.18
8	8902	4.54	0.18
8	8922	4.55	0.18
8	8942	4.56	0.18
8	8962	4.57	0.18
8	8982	4.58	0.18
8	9002	4.59	0.18
8	9022	4.6	0.18
8	9042	4.61	0.18
8	9062	4.62	0.18
8	9082	4.63	0.18
8	9102	4.64	0.18
8	9122	4.65	0.18
8	9142	4.66	0.18
8	9162	4.67	0.18
8	9182	4.68	0.18
8	9202	4.69	0.18
8	9222	4.7	0.18
8	9242	4.71	0.18
8	9262	4.72	0.18
8	9282	4.73	0.18
8	9302	4.74	0.18
8	9322	4.75	0.18
8	9342	4.76	0.18
8	9362	4.77	0.18
8	9382	4.78	0.18
8	9402	4.79	0.18
8	9422	4.8	0.18
8	9442	4.81	0.18
8	9462	4.82	0.18
8	9482	4.83	0.18
8	9502	4.84	0.18
8	9522	4.85	0.18
8	9542	4.86	0.18
8	9562	4.87	0.18
8	9582	4.88	0.18
8	9602	4.89	0.18
8	9622	4.9	0.18
8	9642	4.91	0.18
8	9662	4.92	0.18
8	9682	4.93	0.18
8	9702	4.94	0.18
8	9722	4.95	0.18
8	9742	4.96	0.18
8	9762	4.97	0.18
8	9782	4.98	0.18
8	9802	4.99	0.18
8	9826	5	0.18
8	9846	5.01	0.18
8	9866	5.02	0.18
8	9886	5.03	0.18
8	9906	5.04	0.18
8	9926	5.05	0.18
8	9946	5.06	0.18
8	9966	5.07	0.18
8	9986	5.08	0.18
8	10006	5.09	0.18
8	10026	5.1	0.18
8	10046	5.11	0.18
8	10066	5.12	0.18
8	10086	5.13	0.18
8	10106	5.14	0.18
8	10126	5.15	0.18
8	10146	5.16	0.18
8	10166	5.17	0.18
8	10186	5.18	0.18
8	10206	5.19	0.18
8	10226	5.2	0.18
8	10246	5.21	0.18
8	10266	5.22	0.18
8	10286	5.23	0.18
8	10306	5.24	0.18
8	10326	5.25	0.18
8	10346	5.26	0.18
8	10366	5.27	0.18
8	10386	5.28	0.18
8	10406	5.29	0.18
8	10426	5.3	0.18
8	10446	5.31	0.18
8	10466	5.32	0.18
8	10486	5.33	0.18
8	10506	5.34	0.18
8	10526	5.35	0.18
8	10546	5.36	0.18
8	10566	5.37	0.18
8	10586	5.38	0.18
8	10606	5.39	0.18
8	10626	5.4	0.18
8	10646	5.41	0.18
8	10666	5.42	0.18
8	10686	5.43	0.18
8	10706	5.44	0.18
8	10726	5.45	0.18
8	10746	5.46	0.18
8	10766	5.47	0.18
8	10786	5.48	0.18
8	10806	5.49	0.18
8	10830	5.5	0.18
8	10850	5.51	0.18
8	10870	5.52	0.18
8	10890	5.53	0.18
8	10910	5.54	0.18
8	10930	5.55	0.18
8	10950	5.56	0.18
8	10970	5.57	0.18
8	10990	5.58	0.18
8	11010	5.59	0.18
8	11030	5.6	0.18
8	11050	5.61	0.18
8	11070	5.62	0.18
8	11090	5.63	0.18
8	11110	5.64	0.18
8	11130	5.65	0.18
8	11150	5.66	0.18
8	11170	5.67	0.18
8	11190	5.68	0.18
8	11210	5.69	0.18
8	11230	5.7	0.18
8	11250	5.71	0.18
8	11270	5.72	0.18
8	11290	5.73	0.18
8	11310	5.74	0.18
8	11330	5.75	0.18
8	11350	5.76	0.18
8	11370	5.77	0.18
8	11390	5.78	0.18
8	11410	5.79	0.18
8	11430	5.8	0.18
8	11450	5.81	0.18
8	11470	5.82	0.18
8	11490	5.83	0.18
8	11510	5.84	0.18
8	11530	5.85	0.18
8	11550	5.86	0.18
8	11570	5.87	0.18
8	11590	5.88	0.18
8	11610	5.89	0.18
8	11630	5.9	0.18
8	11650	5.91	0.18
8	11670	5.92	0.18
8	11690	5.93	0.18
8	11710	5.94	0.18
8	11730	5.95	0.18
8	11750	5.96	0.18
8	11770	5.97	0.18
8	11790	5.98	0.18
8	11810	5.99	0.18
8	11834	6	0.18
8	11854	6.01	0.18
8	11874	6.02	0.18
8	11894	6.03	0.18
8	11914	6.04	0.18
8	11934	6.05	0.18
8	11954	6.06	0.18
8	11974	6.07	0.18
8	11994	6.08	0.18
8	12014	6.09	0.18
8	12034	6.1	0.18
8	12054	6.11	0.18
8	12074	6.12	0.18
8	12094	6.13	0.18
8	12114	6.14	0.18
8	12134	6.15	0.18
8	12154	6.16	0.18
8	12174	6.17	0.18
8	12194	6.18	0.18
8	12214	6.19	0.18
8	12234	6.2	0.18
8	12254	6.21	0.18
8	12274	6.22	0.18
8	12294	6.23	0.18
8	12314	6.24	0.18
8	12334	6.25	0.18
8	12354	6.26	0.18
8	12374	6.27	0.18
8	12394	6.28	0.18
8	12414	6.29	0.18
8	12434	6.3	0.18
8	12454	6.31	0.18
8	12474	6.32	0.18
8	12494	6.33	0.18
8	12514	6.34	0.18
8	12534	6.35	0.18
8	12554	6.36	0.18
8	12574	6.37	0.18
8	12594	6.38	0.18
8	12614	6.39	0.18
8	12634	6.4	0.18
8	12654	6.41	0.18
8	12674	6.42	0.18
8	12694	6.43	0.18
8	12714	6.44	0.18
8	12734	6.45	0.18
8	12754	6.46	0.18
8	12774	6.47	0.18
8	12794	6.48	0.18
8	12814	6.49	0.18
8	12838	6.5	0.18
8	12858	6.51	0.18
8	12878	6.52	0.18
8	12898	6.53	0.18
8	12918	6.54	0.18
8	12938	6.55	0.18
8	12958	6.56	0.18
8	12978	6.57	0.18
8	12998	6.58	0.18
8	13018	6.59	0.18
8	13038	6.6	0.18
8	13058	6.61	0.18
8	13078	6.62	0.18
8	13098	6.63	0.18
8	13118	6.64	0.18
8	13138	6.65	0.18
8	13158	6.66	0.18
8	13178	6.67	0.18
8	13198	6.68	0.18
8	13218	6.69	0.18
8	13238	6.7	0.18
8	13258	6.71	0.18
8	13278	6.72	0.18
8	13298	6.73	0.18
8	13318	6.74	0.18
8	13338	6.75	0.18
8	13358	6.76	0.18
8	13378	6.77	0.18
8	13398	6.78	0.18
8	13418	6.79	0.18
8	13438	6.8	0.18
8	13458	6.81	0.18
8	13478	6.82	0.18
8	13498	6.83	0.18
8	13518	6.84	0.18
8	13538	6.85	0.18
8	13558	6.86	0.18
8	13578	6.87	0.18
8	13598	6.88	0.18
8	13618	6.89	0.18
8	13638	6.9	0.18
8	13658	6.91	0.18
8	13678	6.92	0.18
8	13698	6.93	0.18
8	13718	6.94	0.18
8	13738	6.95	0.18
8	13758	6.96	0.18
8	13778	6.97	0.18
8	13798	6.98	0.18
8	13818	6.99	0.18
8	13842	7	0.18
8	13862	7.01	0.18
8	13882	7.02	0.18
8	13902	7.03	0.18
8	13922	7.04	0.18
8	13942	7.05	0.18
8	13962	7.06	0.18
8	13982	7.07	0.18
8	14002	7.08	0.18
8	14022	7.09	0.18
8	14042	7.1	0.18
8	14062	7.11	0.18
8	14082	7.12	0.18
8	14102	7.13	0.18
8	14122	7.14	0.18
8	14142	7.15	0.18
8	14162	7.16	0.18
8	14182	7.17	0.18
8	14202	7.18	0.18
8	14222	7.19	0.18
8	14242	7.2	0.18
8	14262	7.21	0.18
8	14282	7.22	0.18
8	14302	7.23	0.18
8	14322	7.24	0.18
8	14342	7.25	0.18
8	14362	7.26	0.18
8	14382	7.27	0.18
8	14402	7.28	0.18
8	14422	7.29	0.18
8	14442	7.3	0.18
8	14462	7.31	0.18
8	14482	7.32	0.18
8	14502	7.33	0.18
8	14522	7.34	0.18
8	14542	7.35	0.18
8	14562	7.36	0.18
8	14582	7.37	0.18
8	14602	7.38	0.18
8	14622	7.39	0.18
8	14642	7.4	0.18
8	14662	7.41	0.18
8	14682	7.42	0.18
8	14702	7.43	0.18
8	14722	7.44	0.18
8	14742	7.45	0.18
8	14762	7.46	0.18
8	14782	7.47	0.18
8	14802	7.48	0.18
8	14822	7.49	0.18
8	14846	7.5	0.18
8	14866	7.51	0.18
8	14886	7.52	0.18
8	14906	7.53	0.18
8	14926	7.54	0.18
8	14946	7.55	0.18
8	14966	7.56	0.18
8	14986	7.57	0.18
8	15006	7.58	0.18
8	15026	7.59	0.18
8	15046	7.6	0.18
8	15066	7.61	0.18
8	15086	7.62	0.18
8	15106	7.63	0.18
8	15126	7.64	0.18
8	15146	7.65	0.18
8	15166	7.66	0.18
8	15186	7.67	0.18
8	15206	7.68	0.18
8	15226	7.69	0.18
8	15246	7.7	0.18
8	15266	7.71	0.18
8	15286	7.72	0.18
8	15306	7.73	0.18
8	15326	7.74	0.18
8	15346	7.75	0.18
8	15366	7.76	0.18
8	15386	7.77	0.18
8	15406	7.78	0.18
8	15426	7.79	0.18
8	15446	7.8	0.18
8	15466	7.81	0.18
8	15486	7.82	0.18
8	15506	7.83	0.18
8	15526	7.84	0.18
8	15546	7.85	0.18
8	15566	7.86	0.18
8	15586	7.87	0.18
8	15606	7.88	0.18
8	15626	7.89	0.18
8	15646	7.9	0.18
8	15666	7.91	0.18
8	15686	7.92	0.18
8	15706	7.93	0.18
8	15726	7.94	0.18
8	15746	7.95	0.18
8	15766	7.96	0.18
8	15786	7.97	0.18
8	15806	7.98	0.18
8	15826	7.99	0.18
8	15850	8	0.18
8	15870	8.01	0.18
8	15890	8.02	0.18
8	15910	8.03	0.18
8	15930	8.04	0.18
8	15950	8.05	0.18
8	15970	8.06	0.18
8	15990	8.07	0.18
8	16010	8.08	0.18
8	16030	8.09	0.18
8	16050	8.1	0.18
8	16070	8.11	0.18
8	16090	8.12	0.18
8	16110	8.13	0.18
8	16130	8.14	0.18
8	16150	8.15	0.18
8	16170	8.16	0.18
8	16190	8.17	0.18
8	16210	8.18	0.18
8	16230	8.19	0.18
8	16250	8.2	0.18
8	16270	8.21	0.18
8	16290	8.22	0.18
8	16310	8.23	0.18
8	16330	8.24	0.18
8	16350	8.25	0.18
8	16370	8.26	0.18
8	16390	8.27	0.18
8	16410	8.28	0.18
8	16430	8.29	0.18
8	16450	8.3	0.18
8	16470	8.31	0.18
8	16490	8.32	0.18
8	16510	8.33	0.18
8	16530	8.34	0.18
8	16550	8.35	0.18
8	16570	8.36	0.18
8	16590	8.37	0.18
8	16610	8.38	0.18
8	16630	8.39	0.18
8	16650	8.4	0.18
8	16670	8.41	0.18
8	16690	8.42	0.18
8	16710	8.43	0.18
8	16730	8.44	0.18
8	16750	8.45	0.18
8	16770	8.46	0.18
8	16790	8.47	0.18
8	16810	8.48	0.18
8	16830	8.49	0.18
8	16854	8.5	0.18
8	16874	8.51	0.18
8	16894	8.52	0.18
8	16914	8.53	0.18
8	16934	8.54	0.18
8	16954	8.55	0.18
8	16974	8.56	0.18
8	16994	8.57	0.18
8	17014	8.58	0.18
8	17034	8.59	0.18
8	17054	8.6	0.18
8	17074	8.61	0.18
8	17094	8.62	0.18
8	17114	8.63	0.18
8	17134	8.64	0.18
8	17154	8.65	0.18
8	17174	8.66	0.18
8	17194	8.67	0.18
8	17214	8.68	0.18
8	17234	8.69	0.18
8	17254	8.7	0.18
8	17274	8.71	0.18
8	17294	8.72	0.18
8	17314	8.73	0.18
8	17334	8.74	0.18
8	17354	8.75	0.18
8	17374	8.76	0.18
8	17394	8.77	0.18
8	17414	8.78	0.18
8	17434	8.79	0.18
8	17454	8.8	0.18
8	17474	8.81	0.18
8	17494	8.82	0.18
8	17514	8.83	0.18
8	17534	8.84	0.18
8	17554	8.85	0.18
8	17574	8.86	0.18
8	17594	8.87	0.18
8	17614	8.88	0.18
8	17634	8.89	0.18
8	17654	8.9	0.18
8	17674	8.91	0.18
8	17694	8.92	0.18
8	17714	8.93	0.18
8	17734	8.94	0.18
8	17754	8.95	0.18
8	17774	8.96	0.18
8	17794	8.97	0.18
8	17814	8.98	0.18
8	17834	8.99	0.18
8	17858	9	0.18
8	17878	9.01	0.18
8	17898	9.02	0.18
8	17918	9.03	0.18
8	17938	9.04	0.18
8	17958	9.05	0.18
8	17978	9.06	0.18
8	17998	9.07	0.18
8	18018	9.08	0.18
8	18038	9.09	0.18
8	18058	9.1	0.18
8	18078	9.11	0.18
8	18098	9.12	0.18
8	18118	9.13	0.18
8	18138	9.14	0.18
8	18158	9.15	0.18
8	18178	9.16	0.18
8	18198	9.17	0.18
8	18218	9.18	0.18
8	18238	9.19	0.18
8	18258	9.2	0.18
8	18278	9.21	0.18
8	18298	9.22	0.18
8	18318	9.23	0.18
8	18338	9.24	0.18
8	18358	9.25	0.18
8	18378	9.26	0.18
8	18398	9.27	0.18
8	18418	9.28	0.18
8	18438	9.29	0.18
8	18458	9.3	0.18
8	18478	9.31	0.18
8	18498	9.32	0.18
8	18518	9.33	0.18
8	18538	9.34	0.18
8	18558	9.35	0.18
8	18578	9.36	0.18
8	18598	9.37	0.18
8	18618	9.38	0.18
8	18638	9.39	0.18
8	18658	9.4	0.18
8	18678	9.41	0.18
8	18698	9.42	0.18
8	18718	9.43	0.18
8	18738	9.44	0.18
8	18758	9.45	0.18
8	18778	9.46	0.18
8	18798	9.47	0.18
8	18818	9.48	0.18
8	18838	9.49	0.18
8	18862	9.5	0.18
8	18882	9.51	0.18
8	18902	9.52	0.18
8	18922	9.53	0.18
8	18942	9.54	0.18
8	18962	9.55	0.18
8	18982	9.56	0.18
8	19002	9.57	0.18
8	19022	9.58	0.18
8	19042	9.59	0.18
8	19062	9.6	0.18
8	19082	9.61	0.18
8	19102	9.62	0.18
8	19122	9.63	0.18
8	19142	9.64	0.18
8	19162	9.65	0.18
8	19182	9.66	0.18
8	19202	9.67	0.18
8	19222	9.68	0.18
8	19242	9.69	0.18
8	19262	9.7	0.18
8	19282	9.71	0.18
8	19302	9.72	0.18
8	19322	9.73	0.18
8	19342	9.74	0.18
8	19362	9.75	0.18
8	19382	9.76	0.18
8	19402	9.77	0.18
8	19422	9.78	0.18
8	19442	9.79	0.18
8	19462	9.8	0.18
8	19482	9.81	0.18
8	19502	9.82	0.18
8	19522	9.83	0.18
8	19542	9.84	0.18
8	19562	9.85	0.18
8	19582	9.86	0.18
8	19602	9.87	0.18
8	19622	9.88	0.18
8	19642	9.89	0.18
8	19662	9.9	0.18
8	19682	9.91	0.18
8	19702	9.92	0.18
8	19722	9.93	0.18
8	19742	9.94	0.18
8	19762	9.95	0.18
8	19782	9.96	0.18
8	19802	9.97	0.18
8	19822	9.98	0.18
8	19842	9.99	0.18
8	19864	10	0.18
8	19882	10.01	0.18
8	19900	10.02	0.18
8	19916	10.03	0.18
8	19932	10.04	0.18
8	19948	10.05	0.18
8	19962	10.06	0.18
8	19976	10.07	0.18
8	19990	10.08	0.18
8	20002	10.09	0.18
8	20014	10.1	0.18
8	20026	10.11	0.18
8	20036	10.12	0.18
8	20046	10.13	0.18
8	20056	10.14	0.18
8	20062	10.15	0.18
8	20068	10.16	0.18
8	20074	10.17	0.18
9	154	0.18	0.18
9	172	0.19	0.18
9	190	0.2	0.18
9	208	0.21	0.18
9	228	0.22	0.18
9	248	0.23	0.18
9	268	0.24	0.18
9	288	0.25	0.18
9	308	0.26	0.18
9	328	0.27	0.18
9	348	0.28	0.18
9	368	0.29	0.18
9	388	0.3	0.18
9	408	0.31	0.18
9	428	0.32	0.18
9	448	0.33	0.18
9	468	0.34	0.18
9	488	0.35	0.18
9	508	0.36	0.18
9	528	0.37	0.18
9	548	0.38	0.18
9	568	0.39	0.18
9	588	0.4	0.18
9	608	0.41	0.18
9	628	0.42	0.18
9	648	0.43	0.18
9	668	0.44	0.18
9	688	0.45	0.18
9	708	0.46	0.18
9	728	0.47	0.18
9	748	0.48	0.18
9	768	0.49	0.18
9	792	0.5	0.18
9	812	0.51	0.18
9	832	0.52	0.18
9	852	0.53	0.18
9	872	0.54	0.18
9	892	0.55	0.18
9	912	0.56	0.18
9	932	0.57	0.18
9	952	0.58	0.18
9	972	0.59	0.18
9	992	0.6	0.18
9	1012	0.61	0.18
9	1032	0.62	0.18
9	1052	0.63	0.18
9	1072	0.64	0.18
9	1092	0.65	0.18
9	1112	0.66	0.18
9	1132	0.67	0.18
9	1152	0.68	0.18
9	1172	0.69	0.18
9	1192	0.7	0.18
9	1212	0.71	0.18
9	1232	0.72	0.18
9	1252	0.73	0.18
9	1272	0.74	0.18
9	1292	0.75	0.18
9	1312	0.76	0.18
9	1332	0.77	0.18
9	1352	0.78	0.18
9	1372	0.79	0.18
9	1392	0.8	0.18
9	1412	0.81	0.18
9	1432	0.82	0.18
9	1452	0.83	0.18
9	1472	0.84	0.18
9	1492	0.85	0.18
9	1512	0.86	0.18
9	1532	0.87	0.18
9	1552	0.88	0.18
9	1572	0.89	0.18
9	1592	0.9	0.18
9	1612	0.91	0.18
9	1632	0.92	0.18
9	1652	0.93	0.18
9	1672	0.94	0.18
9	1692	0.95	0.18
9	1712	0.96	0.18
9	1732	0.97	0.18
9	1752	0.98	0.18
9	1772	0.99	0.18
9	1796	1	0.18
9	1816	1.01	0.18
9	1836	1.02	0.18
9	1856	1.03	0.18
9	1876	1.04	0.18
9	1896	1.05	0.18
9	1916	1.06	0.18
9	1936	1.07	0.18
9	1956	1.08	0.18
9	1976	1.09	0.18
9	1996	1.1	0.18
9	2016	1.11	0.18
9	2036	1.12	0.18
9	2056	1.13	0.18
9	2076	1.14	0.18
9	2096	1.15	0.18
9	2116	1.16	0.18
9	2136	1.17	0.18
9	2156	1.18	0.18
9	2176	1.19	0.18
9	2196	1.2	0.18
9	2216	1.21	0.18
9	2236	1.22	0.18
9	2256	1.23	0.18
9	2276	1.24	0.18
9	2296	1.25	0.18
9	2316	1.26	0.18
9	2336	1.27	0.18
9	2356	1.28	0.18
9	2376	1.29	0.18
9	2396	1.3	0.18
9	2416	1.31	0.18
9	2436	1.32	0.18
9	2456	1.33	0.18
9	2476	1.34	0.18
9	2496	1.35	0.18
9	2516	1.36	0.18
9	2536	1.37	0.18
9	2556	1.38	0.18
9	2576	1.39	0.18
9	2596	1.4	0.18
9	2616	1.41	0.18
9	2636	1.42	0.18
9	2656	1.43	0.18
9	2676	1.44	0.18
9	2696	1.45	0.18
9	2716	1.46	0.18
9	2736	1.47	0.18
9	2756	1.48	0.18
9	2776	1.49	0.18
9	2800	1.5	0.18
9	2820	1.51	0.18
9	2840	1.52	0.18
9	2860	1.53	0.18
9	2880	1.54	0.18
9	2900	1.55	0.18
9	2920	1.56	0.18
9	2940	1.57	0.18
9	2960	1.58	0.18
9	2980	1.59	0.18
9	3000	1.6	0.18
9	3020	1.61	0.18
9	3040	1.62	0.18
9	3060	1.63	0.18
9	3080	1.64	0.18
9	3100	1.65	0.18
9	3120	1.66	0.18
9	3140	1.67	0.18
9	3160	1.68	0.18
9	3180	1.69	0.18
9	3200	1.7	0.18
9	3220	1.71	0.18
9	3240	1.72	0.18
9	3260	1.73	0.18
9	3280	1.74	0.18
9	3300	1.75	0.18
9	3320	1.76	0.18
9	3340	1.77	0.18
9	3360	1.78	0.18
9	3380	1.79	0.18
9	3400	1.8	0.18
9	3420	1.81	0.18
9	3440	1.82	0.18
9	3460	1.83	0.18
9	3480	1.84	0.18
9	3500	1.85	0.18
9	3520	1.86	0.18
9	3540	1.87	0.18
9	3560	1.88	0.18
9	3580	1.89	0.18
9	3600	1.9	0.18
9	3620	1.91	0.18
9	3640	1.92	0.18
9	3660	1.93	0.18
9	3680	1.94	0.18
9	3700	1.95	0.18
9	3720	1.96	0.18
9	3740	1.97	0.18
9	3760	1.98	0.18
9	3780	1.99	0.18
9	3804	2	0.18
9	3824	2.01	0.18
9	3844	2.02	0.18
9	3864	2.03	0.18
9	3884	2.04	0.18
9	3904	2.05	0.18
9	3924	2.06	0.18
9	3944	2.07	0.18
9	3964	2.08	0.18
9	3984	2.09	0.18
9	4004	2.1	0.18
9	4024	2.11	0.18
9	4044	2.12	0.18
9	4064	2.13	0.18
9	4084	2.14	0.18
9	4104	2.15	0.18
9	4124	2.16	0.18
9	4144	2.17	0.18
9	4164	2.18	0.18
9	4184	2.19	0.18
9	4204	2.2	0.18
9	4224	2.21	0.18
9	4244	2.22	0.18
9	4264	2.23	0.18
9	4284	2.24	0.18
9	4304	2.25	0.18
9	4324	2.26	0.18
9	4344	2.27	0.18
9	4364	2.28	0.18
9	4384	2.29	0.18
9	4404	2.3	0.18
9	4424	2.31	0.18
9	4444	2.32	0.18
9	4464	2.33	0.18
9	4484	2.34	0.18
9	4504	2.35	0.18
9	4524	2.36	0.18
9	4544	2.37	0.18
9	4564	2.38	0.18
9	4584	2.39	0.18
9	4604	2.4	0.18
9	4624	2.41	0.18
9	4644	2.42	0.18
9	4664	2.43	0.18
9	4684	2.44	0.18
9	4704	2.45	0.18
9	4724	2.46	0.18
9	4744	2.47	0.18
9	4764	2.48	0.18
9	4784	2.49	0.18
9	4808	2.5	0.18
9	4828	2.51	0.18
9	4848	2.52	0.18
9	4868	2.53	0.18
9	4888	2.54	0.18
9	4908	2.55	0.18
9	4928	2.56	0.18
9	4948	2.57	0.18
9	4968	2.58	0.18
9	4988	2.59	0.18
9	5008	2.6	0.18
9	5028	2.61	0.18
9	5048	2.62	0.18
9	5068	2.63	0.18
9	5088	2.64	0.18
9	5108	2.65	0.18
9	5128	2.66	0.18
9	5148	2.67	0.18
9	5168	2.68	0.18
9	5188	2.69	0.18
9	5208	2.7	0.18
9	5228	2.71	0.18
9	5248	2.72	0.18
9	5268	2.73	0.18
9	5288	2.74	0.18
9	5308	2.75	0.18
9	5328	2.76	0.18
9	5348	2.77	0.18
9	5368	2.78	0.18
9	5388	2.79	0.18
9	5408	2.8	0.18
9	5428	2.81	0.18
9	5448	2.82	0.18
9	5468	2.83	0.18
9	5488	2.84	0.18
9	5508	2.85	0.18
9	5528	2.86	0.18
9	5548	2.87	0.18
9	5568	2.88	0.18
9	5588	2.89	0.18
9	5608	2.9	0.18
9	5628	2.91	0.18
9	5648	2.92	0.18
9	5668	2.93	0.18
9	5688	2.94	0.18
9	5708	2.95	0.18
9	5728	2.96	0.18
9	5748	2.97	0.18
9	5768	2.98	0.18
9	5788	2.99	0.18
9	5812	3	0.18
9	5832	3.01	0.18
9	5852	3.02	0.18
9	5872	3.03	0.18
9	5892	3.04	0.18
9	5912	3.05	0.18
9	5932	3.06	0.18
9	5952	3.07	0.18
9	5972	3.08	0.18
9	5992	3.09	0.18
9	6012	3.1	0.18
9	6032	3.11	0.18
9	6052	3.12	0.18
9	6072	3.13	0.18
9	6092	3.14	0.18
9	6112	3.15	0.18
9	6132	3.16	0.18
9	6152	3.17	0.18
9	6172	3.18	0.18
9	6192	3.19	0.18
9	6212	3.2	0.18
9	6232	3.21	0.18
9	6252	3.22	0.18
9	6272	3.23	0.18
9	6292	3.24	0.18
9	6312	3.25	0.18
9	6332	3.26	0.18
9	6352	3.27	0.18
9	6372	3.28	0.18
9	6392	3.29	0.18
9	6412	3.3	0.18
9	6432	3.31	0.18
9	6452	3.32	0.18
9	6472	3.33	0.18
9	6492	3.34	0.18
9	6512	3.35	0.18
9	6532	3.36	0.18
9	6552	3.37	0.18
9	6572	3.38	0.18
9	6592	3.39	0.18
9	6612	3.4	0.18
9	6632	3.41	0.18
9	6652	3.42	0.18
9	6672	3.43	0.18
9	6692	3.44	0.18
9	6712	3.45	0.18
9	6732	3.46	0.18
9	6752	3.47	0.18
9	6772	3.48	0.18
9	6792	3.49	0.18
9	6816	3.5	0.18
9	6836	3.51	0.18
9	6856	3.52	0.18
9	6876	3.53	0.18
9	6896	3.54	0.18
9	6916	3.55	0.18
9	6936	3.56	0.18
9	6956	3.57	0.18
9	6976	3.58	0.18
9	6996	3.59	0.18
9	7016	3.6	0.18
9	7036	3.61	0.18
9	7056	3.62	0.18
9	7076	3.63	0.18
9	7096	3.64	0.18
9	7116	3.65	0.18
9	7136	3.66	0.18
9	7156	3.67	0.18
9	7176	3.68	0.18
9	7196	3.69	0.18
9	7216	3.7	0.18
9	7236	3.71	0.18
9	7256	3.72	0.18
9	7276	3.73	0.18
9	7296	3.74	0.18
9	7316	3.75	0.18
9	7336	3.76	0.18
9	7356	3.77	0.18
9	7376	3.78	0.18
9	7396	3.79	0.18
9	7416	3.8	0.18
9	7436	3.81	0.18
9	7456	3.82	0.18
9	7476	3.83	0.18
9	7496	3.84	0.18
9	7516	3.85	0.18
9	7536	3.86	0.18
9	7556	3.87	0.18
9	7576	3.88	0.18
9	7596	3.89	0.18
9	7616	3.9	0.18
9	7636	3.91	0.18
9	7656	3.92	0.18
9	7676	3.93	0.18
9	7696	3.94	0.18
9	7716	3.95	0.18
9	7736	3.96	0.18
9	7756	3.97	0.18
9	7776	3.98	0.18
9	7796	3.99	0.18
9	7820	4	0.18
9	7840	4.01	0.18
9	7860	4.02	0.18
9	7880	4.03	0.18
9	7900	4.04	0.18
9	7920	4.05	0.18
9	7940	4.06	0.18
9	7960	4.07	0.18
9	7980	4.08	0.18
9	8000	4.09	0.18
9	8020	4.1	0.18
9	8040	4.11	0.18
9	8060	4.12	0.18
9	8080	4.13	0.18
9	8100	4.14	0.18
9	8120	4.15	0.18
9	8140	4.16	0.18
9	8160	4.17	0.18
9	8180	4.18	0.18
9	8200	4.19	0.18
9	8220	4.2	0.18
9	8240	4.21	0.18
9	8260	4.22	0.18
9	8280	4.23	0.18
9	8300	4.24	0.18
9	8320	4.25	0.18
9	8340	4.26	0.18
9	8360	4.27	0.18
9	8380	4.28	0.18
9	8400	4.29	0.18
9	8420	4.3	0.18
9	8440	4.31	0.18
9	8460	4.32	0.18
9	8480	4.33	0.18
9	8500	4.34	0.18
9	8520	4.35	0.18
9	8540	4.36	0.18
9	8560	4.37	0.18
9	8580	4.38	0.18
9	8600	4.39	0.18
9	8620	4.4	0.18
9	8640	4.41	0.18
9	8660	4.42	0.18
9	8680	4.43	0.18
9	8700	4.44	0.18
9	8720	4.45	0.18
9	8740	4.46	0.18
9	8760	4.47	0.18
9	8780	4.48	0.18
9	8800	4.49	0.18
9	8824	4.5	0.18
9	8844	4.51	0.18
9	8864	4.52	0.18
9	8884	4.53	0.18
9	8904	4.54	0.18
9	8924	4.55	0.18
9	8944	4.56	0.18
9	8964	4.57	0.18
9	8984	4.58	0.18
9	9004	4.59	0.18
9	9024	4.6	0.18
9	9044	4.61	0.18
9	9064	4.62	0.18
9	9084	4.63	0.18
9	9104	4.64	0.18
9	9124	4.65	0.18
9	9144	4.66	0.18
9	9164	4.67	0.18
9	9184	4.68	0.18
9	9204	4.69	0.18
9	9224	4.7	0.18
9	9244	4.71	0.18
9	9264	4.72	0.18
9	9284	4.73	0.18
9	9304	4.74	0.18
9	9324	4.75	0.18
9	9344	4.76	0.18
9	9364	4.77	0.18
9	9384	4.78	0.18
9	9404	4.79	0.18
9	9424	4.8	0.18
9	9444	4.81	0.18
9	9464	4.82	0.18
9	9484	4.83	0.18
9	9504	4.84	0.18
9	9524	4.85	0.18
9	9544	4.86	0.18
9	9564	4.87	0.18
9	9584	4.88	0.18
9	9604	4.89	0.18
9	9624	4.9	0.18
9	9644	4.91	0.18
9	9664	4.92	0.18
9	9684	4.93	0.18
9	9704	4.94	0.18
9	9724	4.95	0.18
9	9744	4.96	0.18
9	9764	4.97	0.18
9	9784	4.98	0.18
9	9804	4.99	0.18
9	9828	5	0.18
9	9848	5.01	0.18
9	9868	5.02	0.18
9	9888	5.03	0.18
9	9908	5.04	0.18
9	9928	5.05	0.18
9	9948	5.06	0.18
9	9968	5.07	0.18
9	9988	5.08	0.18
9	10008	5.09	0.18
9	10028	5.1	0.18
9	10048	5.11	0.18
9	10068	5.12	0.18
9	10088	5.13	0.18
9	10108	5.14	0.18
9	10128	5.15	0.18
9	10148	5.16	0.18
9	10168	5.17	0.18
9	10188	5.18	0.18
9	10208	5.19	0.18