version 2
run simpleNet-0-20181120-19:21:41-9735
attr configname simpleNet
attr datetime 20181120-19:21:41
attr experiment simpleNet
attr inifile omnetpp.ini
attr iterationvars ""
attr iterationvarsf ""
attr measurement ""
attr network simpleNet
attr processid 9735
attr repetition 0
attr replication #0
attr resultdir results
attr runnumber 0
attr seedset 0

vector 0 simpleNet.node[0] "numAttemptedPerDestSignal(dest node 4):vector" ETV
vector 1 simpleNet.node[0] "numAttemptedPerDestSignal(dest node 1):vector" ETV
vector 2 simpleNet.node[0] "numInQueuePerChannelSignal(other node 1):vector" ETV
vector 3 simpleNet.node[0] "numInQueuePerChannelSignal(other node 3):vector" ETV
vector 4 simpleNet.node[0] "numInQueuePerChannelSignal(other node 4):vector" ETV
vector 5 simpleNet.node[0] "numProcessedPerChannelSignal(other node 0):vector" ETV
vector 6 simpleNet.node[0] "numProcessedPerChannelSignal(other node 1):vector" ETV
vector 7 simpleNet.node[0] "numProcessedPerChannelSignal(other node 2):vector" ETV
vector 8 simpleNet.node[0] "numProcessedPerChannelSignal(other node 3):vector" ETV
vector 9 simpleNet.node[0] "numProcessedPerChannelSignal(other node 4):vector" ETV
vector 10 simpleNet.node[0] numInQueue:vector ETV
attr interpolationmode none
attr source numInQueue
attr title "total num in queue, vector"
vector 11 simpleNet.node[1] "numAttemptedPerDestSignal(dest node 3):vector" ETV
vector 12 simpleNet.node[1] "numInQueuePerChannelSignal(other node 0):vector" ETV
vector 13 simpleNet.node[1] "numInQueuePerChannelSignal(other node 2):vector" ETV
vector 14 simpleNet.node[1] "numInQueuePerChannelSignal(other node 3):vector" ETV
vector 15 simpleNet.node[1] "numProcessedPerChannelSignal(other node 0):vector" ETV
vector 16 simpleNet.node[1] "numProcessedPerChannelSignal(other node 1):vector" ETV
vector 17 simpleNet.node[1] "numProcessedPerChannelSignal(other node 2):vector" ETV
vector 18 simpleNet.node[1] "numProcessedPerChannelSignal(other node 3):vector" ETV
vector 19 simpleNet.node[1] "numProcessedPerChannelSignal(other node 4):vector" ETV
vector 20 simpleNet.node[1] numInQueue:vector ETV
attr interpolationmode none
attr source numInQueue
attr title "total num in queue, vector"
vector 21 simpleNet.node[2] "numAttemptedPerDestSignal(dest node 1):vector" ETV
vector 22 simpleNet.node[2] "numAttemptedPerDestSignal(dest node 4):vector" ETV
vector 23 simpleNet.node[2] "numInQueuePerChannelSignal(other node 1):vector" ETV
vector 24 simpleNet.node[2] "numInQueuePerChannelSignal(other node 3):vector" ETV
vector 25 simpleNet.node[2] "numInQueuePerChannelSignal(other node 4):vector" ETV
vector 26 simpleNet.node[2] "numProcessedPerChannelSignal(other node 0):vector" ETV
vector 27 simpleNet.node[2] "numProcessedPerChannelSignal(other node 1):vector" ETV
vector 28 simpleNet.node[2] "numProcessedPerChannelSignal(other node 2):vector" ETV
vector 29 simpleNet.node[2] "numProcessedPerChannelSignal(other node 3):vector" ETV
vector 30 simpleNet.node[2] "numProcessedPerChannelSignal(other node 4):vector" ETV
vector 31 simpleNet.node[2] numInQueue:vector ETV
attr interpolationmode none
attr source numInQueue
attr title "total num in queue, vector"
vector 32 simpleNet.node[3] "numAttemptedPerDestSignal(dest node 0):vector" ETV
vector 33 simpleNet.node[3] "numAttemptedPerDestSignal(dest node 2):vector" ETV
vector 34 simpleNet.node[3] "numInQueuePerChannelSignal(other node 0):vector" ETV
vector 35 simpleNet.node[3] "numInQueuePerChannelSignal(other node 1):vector" ETV
vector 36 simpleNet.node[3] "numInQueuePerChannelSignal(other node 2):vector" ETV
vector 37 simpleNet.node[3] "numProcessedPerChannelSignal(other node 0):vector" ETV
vector 38 simpleNet.node[3] "numProcessedPerChannelSignal(other node 1):vector" ETV
vector 39 simpleNet.node[3] "numProcessedPerChannelSignal(other node 2):vector" ETV
vector 40 simpleNet.node[3] "numProcessedPerChannelSignal(other node 3):vector" ETV
vector 41 simpleNet.node[3] "numProcessedPerChannelSignal(other node 4):vector" ETV
vector 42 simpleNet.node[3] numInQueue:vector ETV
attr interpolationmode none
attr source numInQueue
attr title "total num in queue, vector"
vector 43 simpleNet.node[4] "numAttemptedPerDestSignal(dest node 2):vector" ETV
vector 44 simpleNet.node[4] "numInQueuePerChannelSignal(other node 0):vector" ETV
vector 45 simpleNet.node[4] "numInQueuePerChannelSignal(other node 2):vector" ETV
vector 46 simpleNet.node[4] "numProcessedPerChannelSignal(other node 0):vector" ETV
vector 47 simpleNet.node[4] "numProcessedPerChannelSignal(other node 1):vector" ETV
vector 48 simpleNet.node[4] "numProcessedPerChannelSignal(other node 2):vector" ETV
vector 49 simpleNet.node[4] "numProcessedPerChannelSignal(other node 3):vector" ETV
vector 50 simpleNet.node[4] "numProcessedPerChannelSignal(other node 4):vector" ETV
vector 51 simpleNet.node[4] numInQueue:vector ETV
attr interpolationmode none
attr source numInQueue
attr title "total num in queue, vector"
vector 52 simpleNet.node[0] completionTime:vector ETV
attr interpolationmode none
attr source completionTime
attr title "completionTime, vector"
vector 53 simpleNet.node[0] "numCompletedPerSourceSignal(source node 4):vector" ETV
vector 54 simpleNet.node[0] "numCompletedPerSourceSignal(source node 1):vector" ETV
vector 55 simpleNet.node[1] completionTime:vector ETV
attr interpolationmode none
attr source completionTime
attr title "completionTime, vector"
vector 56 simpleNet.node[1] "numCompletedPerSourceSignal(source node 3):vector" ETV
vector 57 simpleNet.node[2] completionTime:vector ETV
attr interpolationmode none
attr source completionTime
attr title "completionTime, vector"
vector 58 simpleNet.node[2] "numCompletedPerSourceSignal(source node 1):vector" ETV
vector 59 simpleNet.node[2] "numCompletedPerSourceSignal(source node 4):vector" ETV
vector 60 simpleNet.node[3] completionTime:vector ETV
attr interpolationmode none
attr source completionTime
attr title "completionTime, vector"
vector 61 simpleNet.node[3] "numCompletedPerSourceSignal(source node 0):vector" ETV
vector 62 simpleNet.node[3] "numCompletedPerSourceSignal(source node 2):vector" ETV
vector 63 simpleNet.node[4] completionTime:vector ETV
attr interpolationmode none
attr source completionTime
attr title "completionTime, vector"
vector 64 simpleNet.node[4] "numCompletedPerSourceSignal(source node 2):vector" ETV
0	1	0	1
0	63	1	2
0	125	2	3
0	187	3	4
0	249	4	5
0	311	5	6
0	373	6	7
0	435	7	8
0	497	8	9
0	559	9	10
1	2	0	1
1	64	1	2
1	126	2	3
1	188	3	4
1	250	4	5
1	312	5	6
1	374	6	7
1	436	7	8
1	498	8	9
1	560	9	10
2	3	0	0
2	43	0.5	0
2	71	1	0
2	105	1.5	0
2	133	2	0
2	167	2.5	0
2	195	3	0
2	229	3.5	0
2	257	4	0
2	291	4.5	0
2	319	5	0
2	353	5.5	0
2	381	6	0
2	415	6.5	0
2	443	7	0
2	477	7.5	0
2	505	8	0
2	539	8.5	0
2	567	9	0
2	601	9.5	0
2	621	10	0
2	626	10.5	0
3	3	0	0
3	43	0.5	0
3	71	1	0
3	105	1.5	0
3	133	2	0
3	167	2.5	0
3	195	3	0
3	229	3.5	0
3	257	4	0
3	291	4.5	0
3	319	5	0
3	353	5.5	0
3	381	6	0
3	415	6.5	0
3	443	7	0
3	477	7.5	0
3	505	8	0
3	539	8.5	0
3	567	9	0
3	601	9.5	0
3	621	10	0
3	626	10.5	0
4	3	0	0
4	43	0.5	0
4	71	1	0
4	105	1.5	0
4	133	2	0
4	167	2.5	0
4	195	3	0
4	229	3.5	0
4	257	4	0
4	291	4.5	0
4	319	5	0
4	353	5.5	0
4	381	6	0
4	415	6.5	0
4	443	7	0
4	477	7.5	0
4	505	8	0
4	539	8.5	0
4	567	9	0
4	601	9.5	0
4	621	10	0
4	626	10.5	0
5	3	0	0
5	43	0.5	0
5	71	1	0
5	105	1.5	0
5	133	2	0
5	167	2.5	0
5	195	3	0
5	229	3.5	0
5	257	4	0
5	291	4.5	0
5	319	5	0
5	353	5.5	0
5	381	6	0
5	415	6.5	0
5	443	7	0
5	477	7.5	0
5	505	8	0
5	539	8.5	0
5	567	9	0
5	601	9.5	0
5	621	10	0
5	626	10.5	0
6	3	0	0
6	43	0.5	1
6	71	1	0
6	105	1.5	1
6	133	2	0
6	167	2.5	1
6	195	3	0
6	229	3.5	1
6	257	4	0
6	291	4.5	1
6	319	5	0
6	353	5.5	1
6	381	6	0
6	415	6.5	1
6	443	7	0
6	477	7.5	1
6	505	8	0
6	539	8.5	1
6	567	9	0
6	601	9.5	1
6	621	10	0
6	626	10.5	0
7	3	0	0
7	43	0.5	0
7	71	1	0
7	105	1.5	0
7	133	2	0
7	167	2.5	0
7	195	3	0
7	229	3.5	0
7	257	4	0
7	291	4.5	0
7	319	5	0
7	353	5.5	0
7	381	6	0
7	415	6.5	0
7	443	7	0
7	477	7.5	0
7	505	8	0
7	539	8.5	0
7	567	9	0
7	601	9.5	0
7	621	10	0
7	626	10.5	0
8	3	0	0
8	43	0.5	1
8	71	1	1
8	105	1.5	1
8	133	2	1
8	167	2.5	1
8	195	3	1
8	229	3.5	1
8	257	4	1
8	291	4.5	1
8	319	5	1
8	353	5.5	1
8	381	6	1
8	415	6.5	1
8	443	7	1
8	477	7.5	1
8	505	8	1
8	539	8.5	1
8	567	9	1
8	601	9.5	1
8	621	10	1
8	626	10.5	0
9	3	0	0
9	43	0.5	1
9	71	1	0
9	105	1.5	1
9	133	2	0
9	167	2.5	1
9	195	3	0
9	229	3.5	1
9	257	4	0
9	291	4.5	1
9	319	5	0
9	353	5.5	1
9	381	6	0
9	415	6.5	1
9	443	7	0
9	477	7.5	1
9	505	8	0
9	539	8.5	1
9	567	9	0
9	601	9.5	1
9	621	10	0
9	626	10.5	0
10	3	0	0
10	43	0.5	0
10	71	1	0
10	105	1.5	0
10	133	2	0
10	167	2.5	0
10	195	3	0
10	229	3.5	0
10	257	4	0
10	291	4.5	0
10	319	5	0
10	353	5.5	0
10	381	6	0
10	415	6.5	0
10	443	7	0
10	477	7.5	0
10	505	8	0
10	539	8.5	0
10	567	9	0
10	601	9.5	0
10	621	10	0
10	626	10.5	0
11	4	0	1
11	38	0.5	2
11	65	1	3
11	100	1.5	4
11	127	2	5
11	162	2.5	6
11	189	3	7
11	224	3.5	8
11	251	4	9
11	286	4.5	10
11	313	5	11
11	348	5.5	12
11	375	6	13
11	410	6.5	14
11	437	7	15
11	472	7.5	16
11	499	8	17
11	534	8.5	18
11	561	9	19
11	596	9.5	20
12	5	0	0
12	44	0.5	0
12	72	1	0
12	106	1.5	0
12	134	2	0
12	168	2.5	0
12	196	3	0
12	230	3.5	0
12	258	4	0
12	292	4.5	0
12	320	5	0
12	354	5.5	0
12	382	6	0
12	416	6.5	0
12	444	7	0
12	478	7.5	0
12	506	8	0
12	540	8.5	0
12	568	9	0
12	602	9.5	0
12	622	10	0
12	627	10.5	0
13	5	0	0
13	44	0.5	0
13	72	1	0
13	106	1.5	0
13	134	2	0
13	168	2.5	0
13	196	3	0
13	230	3.5	0
13	258	4	0
13	292	4.5	0
13	320	5	0
13	354	5.5	0
13	382	6	0
13	416	6.5	0
13	444	7	0
13	478	7.5	0
13	506	8	0
13	540	8.5	0
13	568	9	0
13	602	9.5	0
13	622	10	0
13	627	10.5	0
14	5	0	0
14	44	0.5	0
14	72	1	0
14	106	1.5	0
14	134	2	0
14	168	2.5	0
14	196	3	0
14	230	3.5	0
14	258	4	0
14	292	4.5	0
14	320	5	0
14	354	5.5	0
14	382	6	0
14	416	6.5	0
14	444	7	0
14	478	7.5	0
14	506	8	0
14	540	8.5	0
14	568	9	0
14	602	9.5	0
14	622	10	0
14	627	10.5	0
15	5	0	0
15	44	0.5	1
15	72	1	0
15	106	1.5	1
15	134	2	0
15	168	2.5	1
15	196	3	0
15	230	3.5	1
15	258	4	0
15	292	4.5	1
15	320	5	0
15	354	5.5	1
15	382	6	0
15	416	6.5	1
15	444	7	0
15	478	7.5	1
15	506	8	0
15	540	8.5	1
15	568	9	0
15	602	9.5	1
15	622	10	0
15	627	10.5	0
16	5	0	0
16	44	0.5	0
16	72	1	0
16	106	1.5	0
16	134	2	0
16	168	2.5	0
16	196	3	0
16	230	3.5	0
16	258	4	0
16	292	4.5	0
16	320	5	0
16	354	5.5	0
16	382	6	0
16	416	6.5	0
16	444	7	0
16	478	7.5	0
16	506	8	0
16	540	8.5	0
16	568	9	0
16	602	9.5	0
16	622	10	0
16	627	10.5	0
17	5	0	0
17	44	0.5	1
17	72	1	0
17	106	1.5	1
17	134	2	0
17	168	2.5	1
17	196	3	0
17	230	3.5	1
17	258	4	0
17	292	4.5	1
17	320	5	0
17	354	5.5	1
17	382	6	0
17	416	6.5	1
17	444	7	0
17	478	7.5	1
17	506	8	0
17	540	8.5	1
17	568	9	0
17	602	9.5	1
17	622	10	0
17	627	10.5	0
18	5	0	0
18	44	0.5	1
18	72	1	1
18	106	1.5	1
18	134	2	1
18	168	2.5	1
18	196	3	1
18	230	3.5	1
18	258	4	1
18	292	4.5	1
18	320	5	1
18	354	5.5	1
18	382	6	1
18	416	6.5	1
18	444	7	1
18	478	7.5	1
18	506	8	1
18	540	8.5	1
18	568	9	1
18	602	9.5	1
18	622	10	1
18	627	10.5	0
19	5	0	0
19	44	0.5	0
19	72	1	0
19	106	1.5	0
19	134	2	0
19	168	2.5	0
19	196	3	0
19	230	3.5	0
19	258	4	0
19	292	4.5	0
19	320	5	0
19	354	5.5	0
19	382	6	0
19	416	6.5	0
19	444	7	0
19	478	7.5	0
19	506	8	0
19	540	8.5	0
19	568	9	0
19	602	9.5	0
19	622	10	0
19	627	10.5	0
20	5	0	0
20	44	0.5	0
20	72	1	0
20	106	1.5	0
20	134	2	0
20	168	2.5	0
20	196	3	0
20	230	3.5	0
20	258	4	0
20	292	4.5	0
20	320	5	0
20	354	5.5	0
20	382	6	0
20	416	6.5	0
20	444	7	0
20	478	7.5	0
20	506	8	0
20	540	8.5	0
20	568	9	0
20	602	9.5	0
20	622	10	0
20	627	10.5	0
21	6	0	1
21	66	1	2
21	128	2	3
21	190	3	4
21	252	4	5
21	314	5	6
21	376	6	7
21	438	7	8
21	500	8	9
21	562	9	10
22	7	0	1
22	39	0.5	2
22	67	1	3
22	101	1.5	4
22	129	2	5
22	163	2.5	6
22	191	3	7
22	225	3.5	8
22	253	4	9
22	287	4.5	10
22	315	5	11
22	349	5.5	12
22	377	6	13
22	411	6.5	14
22	439	7	15
22	473	7.5	16
22	501	8	17
22	535	8.5	18
22	563	9	19
22	597	9.5	20
23	8	0	0
23	45	0.5	0
23	73	1	0
23	107	1.5	0
23	135	2	0
23	169	2.5	0
23	197	3	0
23	231	3.5	0
23	259	4	0
23	293	4.5	0
23	321	5	0
23	355	5.5	0
23	383	6	0
23	417	6.5	0
23	445	7	0
23	479	7.5	0
23	507	8	0
23	541	8.5	0
23	569	9	0
23	603	9.5	0
23	623	10	0
23	628	10.5	0
24	8	0	0
24	45	0.5	0
24	73	1	0
24	107	1.5	0
24	135	2	0
24	169	2.5	0
24	197	3	0
24	231	3.5	0
24	259	4	0
24	293	4.5	0
24	321	5	0
24	355	5.5	0
24	383	6	0
24	417	6.5	0
24	445	7	0
24	479	7.5	0
24	507	8	0
24	541	8.5	0
24	569	9	0
24	603	9.5	0
24	623	10	0
24	628	10.5	0
25	8	0	0
25	45	0.5	0
25	73	1	0
25	107	1.5	0
25	135	2	0
25	169	2.5	0
25	197	3	0
25	231	3.5	0
25	259	4	0
25	293	4.5	0
25	321	5	0
25	355	5.5	0
25	383	6	0
25	417	6.5	0
25	445	7	0
25	479	7.5	0
25	507	8	0
25	541	8.5	0
25	569	9	0
25	603	9.5	0
25	623	10	0
25	628	10.5	0
26	8	0	0
26	45	0.5	0
26	73	1	0
26	107	1.5	0
26	135	2	0
26	169	2.5	0
26	197	3	0
26	231	3.5	0
26	259	4	0
26	293	4.5	0
26	321	5	0
26	355	5.5	0
26	383	6	0
26	417	6.5	0
26	445	7	0
26	479	7.5	0
26	507	8	0
26	541	8.5	0
26	569	9	0
26	603	9.5	0
26	623	10	0
26	628	10.5	0
27	8	0	0
27	45	0.5	1
27	73	1	0
27	107	1.5	1
27	135	2	0
27	169	2.5	1
27	197	3	0
27	231	3.5	1
27	259	4	0
27	293	4.5	1
27	321	5	0
27	355	5.5	1
27	383	6	0
27	417	6.5	1
27	445	7	0
27	479	7.5	1
27	507	8	0
27	541	8.5	1
27	569	9	0
27	603	9.5	1
27	623	10	0
27	628	10.5	0
28	8	0	0
28	45	0.5	0
28	73	1	0
28	107	1.5	0
28	135	2	0
28	169	2.5	0
28	197	3	0
28	231	3.5	0
28	259	4	0
28	293	4.5	0
28	321	5	0
28	355	5.5	0
28	383	6	0
28	417	6.5	0
28	445	7	0
28	479	7.5	0
28	507	8	0
28	541	8.5	0
28	569	9	0
28	603	9.5	0
28	623	10	0
28	628	10.5	0
29	8	0	0
29	45	0.5	1
29	73	1	1
29	107	1.5	1
29	135	2	1
29	169	2.5	1
29	197	3	1
29	231	3.5	1
29	259	4	1
29	293	4.5	1
29	321	5	1
29	355	5.5	1
29	383	6	1
29	417	6.5	1
29	445	7	1
29	479	7.5	1
29	507	8	1
29	541	8.5	1
29	569	9	1
29	603	9.5	1
29	623	10	1
29	628	10.5	0
30	8	0	0
30	45	0.5	2
30	73	1	2
30	107	1.5	2
30	135	2	2
30	169	2.5	2
30	197	3	2
30	231	3.5	2
30	259	4	2
30	293	4.5	2
30	321	5	2
30	355	5.5	2
30	383	6	2
30	417	6.5	2
30	445	7	2
30	479	7.5	2
30	507	8	2
30	541	8.5	2
30	569	9	2
30	603	9.5	2
30	623	10	2
30	628	10.5	0
31	8	0	0
31	45	0.5	0
31	73	1	0
31	107	1.5	0
31	135	2	0
31	169	2.5	0
31	197	3	0
31	231	3.5	0
31	259	4	0
31	293	4.5	0
31	321	5	0
31	355	5.5	0
31	383	6	0
31	417	6.5	0
31	445	7	0
31	479	7.5	0
31	507	8	0
31	541	8.5	0
31	569	9	0
31	603	9.5	0
31	623	10	0
31	628	10.5	0
32	9	0	1
32	40	0.5	2
32	68	1	3
32	102	1.5	4
32	130	2	5
32	164	2.5	6
32	192	3	7
32	226	3.5	8
32	254	4	9
32	288	4.5	10
32	316	5	11
32	350	5.5	12
32	378	6	13
32	412	6.5	14
32	440	7	15
32	474	7.5	16
32	502	8	17
32	536	8.5	18
32	564	9	19
32	598	9.5	20
33	10	0	1
33	41	0.5	2
33	69	1	3
33	103	1.5	4
33	131	2	5
33	165	2.5	6
33	193	3	7
33	227	3.5	8
33	255	4	9
33	289	4.5	10
33	317	5	11
33	351	5.5	12
33	379	6	13
33	413	6.5	14
33	441	7	15
33	475	7.5	16
33	503	8	17
33	537	8.5	18
33	565	9	19
33	599	9.5	20
34	11	0	0
34	46	0.5	0
34	74	1	0
34	108	1.5	0
34	136	2	0
34	170	2.5	0
34	198	3	0
34	232	3.5	0
34	260	4	0
34	294	4.5	0
34	322	5	0
34	356	5.5	0
34	384	6	0
34	418	6.5	0
34	446	7	0
34	480	7.5	0
34	508	8	0
34	542	8.5	0
34	570	9	0
34	604	9.5	0
34	624	10	0
34	629	10.5	0
35	11	0	0
35	46	0.5	0
35	74	1	0
35	108	1.5	0
35	136	2	0
35	170	2.5	0
35	198	3	0
35	232	3.5	0
35	260	4	0
35	294	4.5	0
35	322	5	0
35	356	5.5	0
35	384	6	0
35	418	6.5	0
35	446	7	0
35	480	7.5	0
35	508	8	0
35	542	8.5	0
35	570	9	0
35	604	9.5	0
35	624	10	0
35	629	10.5	0
36	11	0	0
36	46	0.5	0
36	74	1	0
36	108	1.5	0
36	136	2	0
36	170	2.5	0
36	198	3	0
36	232	3.5	0
36	260	4	0
36	294	4.5	0
36	322	5	0
36	356	5.5	0
36	384	6	0
36	418	6.5	0
36	446	7	0
36	480	7.5	0
36	508	8	0
36	542	8.5	0
36	570	9	0
36	604	9.5	0
36	624	10	0
36	629	10.5	0
37	11	0	0
37	46	0.5	1
37	74	1	1
37	108	1.5	1
37	136	2	1
37	170	2.5	1
37	198	3	1
37	232	3.5	1
37	260	4	1
37	294	4.5	1
37	322	5	1
37	356	5.5	1
37	384	6	1
37	418	6.5	1
37	446	7	1
37	480	7.5	1
37	508	8	1
37	542	8.5	1
37	570	9	1
37	604	9.5	1
37	624	10	1
37	629	10.5	0
38	11	0	0
38	46	0.5	1
38	74	1	1
38	108	1.5	1
38	136	2	1
38	170	2.5	1
38	198	3	1
38	232	3.5	1
38	260	4	1
38	294	4.5	1
38	322	5	1
38	356	5.5	1
38	384	6	1
38	418	6.5	1
38	446	7	1
38	480	7.5	1
38	508	8	1
38	542	8.5	1
38	570	9	1
38	604	9.5	1
38	624	10	1
38	629	10.5	0
39	11	0	0
39	46	0.5	1
39	74	1	1
39	108	1.5	1
39	136	2	1
39	170	2.5	1
39	198	3	1
39	232	3.5	1
39	260	4	1
39	294	4.5	1
39	322	5	1
39	356	5.5	1
39	384	6	1
39	418	6.5	1
39	446	7	1
39	480	7.5	1
39	508	8	1
39	542	8.5	1
39	570	9	1
39	604	9.5	1
39	624	10	1
39	629	10.5	0
40	11	0	0
40	46	0.5	0
40	74	1	0
40	108	1.5	0
40	136	2	0
40	170	2.5	0
40	198	3	0
40	232	3.5	0
40	260	4	0
40	294	4.5	0
40	322	5	0
40	356	5.5	0
40	384	6	0
40	418	6.5	0
40	446	7	0
40	480	7.5	0
40	508	8	0
40	542	8.5	0
40	570	9	0
40	604	9.5	0
40	624	10	0
40	629	10.5	0
41	11	0	0
41	46	0.5	0
41	74	1	0
41	108	1.5	0
41	136	2	0
41	170	2.5	0
41	198	3	0
41	232	3.5	0
41	260	4	0
41	294	4.5	0
41	322	5	0
41	356	5.5	0
41	384	6	0
41	418	6.5	0
41	446	7	0
41	480	7.5	0
41	508	8	0
41	542	8.5	0
41	570	9	0
41	604	9.5	0
41	624	10	0
41	629	10.5	0
42	11	0	0
42	46	0.5	0
42	74	1	0
42	108	1.5	0
42	136	2	0
42	170	2.5	0
42	198	3	0
42	232	3.5	0
42	260	4	0
42	294	4.5	0
42	322	5	0
42	356	5.5	0
42	384	6	0
42	418	6.5	0
42	446	7	0
42	480	7.5	0
42	508	8	0
42	542	8.5	0
42	570	9	0
42	604	9.5	0
42	624	10	0
42	629	10.5	0
43	12	0	1
43	42	0.5	2
43	70	1	3
43	104	1.5	4
43	132	2	5
43	166	2.5	6
43	194	3	7
43	228	3.5	8
43	256	4	9
43	290	4.5	10
43	318	5	11
43	352	5.5	12
43	380	6	13
43	414	6.5	14
43	442	7	15
43	476	7.5	16
43	504	8	17
43	538	8.5	18
43	566	9	19
43	600	9.5	20
44	13	0	0
44	47	0.5	0
44	75	1	0
44	109	1.5	0
44	137	2	0
44	171	2.5	0
44	199	3	0
44	233	3.5	0
44	261	4	0
44	295	4.5	0
44	323	5	0
44	357	5.5	0
44	385	6	0
44	419	6.5	0
44	447	7	0
44	481	7.5	0
44	509	8	0
44	543	8.5	0
44	571	9	0
44	605	9.5	0
44	625	10	0
44	630	10.5	0
45	13	0	0
45	47	0.5	0
45	75	1	0
45	109	1.5	0
45	137	2	0
45	171	2.5	0
45	199	3	0
45	233	3.5	0
45	261	4	0
45	295	4.5	0
45	323	5	0
45	357	5.5	0
45	385	6	0
45	419	6.5	0
45	447	7	0
45	481	7.5	0
45	509	8	0
45	543	8.5	0
45	571	9	0
45	605	9.5	0
45	625	10	0
45	630	10.5	0
46	13	0	0
46	47	0.5	1
46	75	1	0
46	109	1.5	1
46	137	2	0
46	171	2.5	1
46	199	3	0
46	233	3.5	1
46	261	4	0
46	295	4.5	1
46	323	5	0
46	357	5.5	1
46	385	6	0
46	419	6.5	1
46	447	7	0
46	481	7.5	1
46	509	8	0
46	543	8.5	1
46	571	9	0
46	605	9.5	1
46	625	10	0
46	630	10.5	0
47	13	0	0
47	47	0.5	0
47	75	1	0
47	109	1.5	0
47	137	2	0
47	171	2.5	0
47	199	3	0
47	233	3.5	0
47	261	4	0
47	295	4.5	0
47	323	5	0
47	357	5.5	0
47	385	6	0
47	419	6.5	0
47	447	7	0
47	481	7.5	0
47	509	8	0
47	543	8.5	0
47	571	9	0
47	605	9.5	0
47	625	10	0
47	630	10.5	0
48	13	0	0
48	47	0.5	2
48	75	1	2
48	109	1.5	2
48	137	2	2
48	171	2.5	2
48	199	3	2
48	233	3.5	2
48	261	4	2
48	295	4.5	2
48	323	5	2
48	357	5.5	2
48	385	6	2
48	419	6.5	2
48	447	7	2
48	481	7.5	2
48	509	8	2
48	543	8.5	2
48	571	9	2
48	605	9.5	2
48	625	10	2
48	630	10.5	0
49	13	0	0
49	47	0.5	0
49	75	1	0
49	109	1.5	0
49	137	2	0
49	171	2.5	0
49	199	3	0
49	233	3.5	0
49	261	4	0
49	295	4.5	0
49	323	5	0
49	357	5.5	0
49	385	6	0
49	419	6.5	0
49	447	7	0
49	481	7.5	0
49	509	8	0
49	543	8.5	0
49	571	9	0
49	605	9.5	0
49	625	10	0
49	630	10.5	0
50	13	0	0
50	47	0.5	0
50	75	1	0
50	109	1.5	0
50	137	2	0
50	171	2.5	0
50	199	3	0
50	233	3.5	0
50	261	4	0
50	295	4.5	0
50	323	5	0
50	357	5.5	0
50	385	6	0
50	419	6.5	0
50	447	7	0
50	481	7.5	0
50	509	8	0
50	543	8.5	0
50	571	9	0
50	605	9.5	0
50	625	10	0
50	630	10.5	0
51	13	0	0
51	47	0.5	0
51	75	1	0
51	109	1.5	0
51	137	2	0
51	171	2.5	0
51	199	3	0
51	233	3.5	0
51	261	4	0
51	295	4.5	0
51	323	5	0
51	357	5.5	0
51	385	6	0
51	419	6.5	0
51	447	7	0
51	481	7.5	0
51	509	8	0
51	543	8.5	0
51	571	9	0
51	605	9.5	0
51	625	10	0
51	630	10.5	0
52	22	0.06	60
52	23	0.06	60
52	84	1.06	60
52	85	1.06	60
52	146	2.06	60
52	147	2.06	60
52	208	3.06	60
52	209	3.06	60
52	270	4.06	60
52	271	4.06	60
52	332	5.06	60
52	333	5.06	60
52	394	6.06	60
52	395	6.06	60
52	456	7.06	60
52	457	7.06	60
52	518	8.06	60
52	519	8.06	60
52	580	9.06	60
52	581	9.06	60
53	22	0.06	1
53	84	1.06	2
53	146	2.06	3
53	208	3.06	4
53	270	4.06	5
53	332	5.06	6
53	394	6.06	7
53	456	7.06	8
53	518	8.06	9
53	580	9.06	10
54	23	0.06	1
54	85	1.06	2
54	147	2.06	3
54	209	3.06	4
54	271	4.06	5
54	333	5.06	6
54	395	6.06	7
54	457	7.06	8
54	519	8.06	9
54	581	9.06	10
55	24	0.06	60
55	53	0.56	60
55	86	1.06	60
55	115	1.56	60
55	148	2.06	60
55	177	2.56	60
55	210	3.06	60
55	239	3.56	60
55	272	4.06	60
55	301	4.56	60
55	334	5.06	60
55	363	5.56	60
55	396	6.06	60
55	425	6.56	60
55	458	7.06	60
55	487	7.56	60
55	520	8.06	60
55	549	8.56	60
55	582	9.06	60
55	611	9.56	60
56	24	0.06	1
56	53	0.56	2
56	86	1.06	3
56	115	1.56	4
56	148	2.06	5
56	177	2.56	6
56	210	3.06	7
56	239	3.56	8
56	272	4.06	9
56	301	4.56	10
56	334	5.06	11
56	363	5.56	12
56	396	6.06	13
56	425	6.56	14
56	458	7.06	15
56	487	7.56	16
56	520	8.06	17
56	549	8.56	18
56	582	9.06	19
56	611	9.56	20
57	25	0.06	60
57	26	0.06	60
57	54	0.56	60
57	87	1.06	60
57	88	1.06	60
57	116	1.56	60
57	149	2.06	60
57	150	2.06	60
57	178	2.56	60
57	211	3.06	60
57	212	3.06	60
57	240	3.56	60
57	273	4.06	60
57	274	4.06	60
57	302	4.56	60
57	335	5.06	60
57	336	5.06	60
57	364	5.56	60
57	397	6.06	60
57	398	6.06	60
57	426	6.56	60
57	459	7.06	60
57	460	7.06	60
57	488	7.56	60
57	521	8.06	60
57	522	8.06	60
57	550	8.56	60
57	583	9.06	60
57	584	9.06	60
57	612	9.56	60
58	25	0.06	1
58	87	1.06	2
58	149	2.06	3
58	211	3.06	4
58	273	4.06	5
58	335	5.06	6
58	397	6.06	7
58	459	7.06	8
58	521	8.06	9
58	583	9.06	10
59	26	0.06	1
59	54	0.56	2
59	88	1.06	3
59	116	1.56	4
59	150	2.06	5
59	178	2.56	6
59	212	3.06	7
59	240	3.56	8
59	274	4.06	9
59	302	4.56	10
59	336	5.06	11
59	364	5.56	12
59	398	6.06	13
59	426	6.56	14
59	460	7.06	15
59	488	7.56	16
59	522	8.06	17
59	550	8.56	18
59	584	9.06	19
59	612	9.56	20
60	27	0.06	60
60	28	0.06	60
60	55	0.56	60
60	56	0.56	60
60	89	1.06	60
60	90	1.06	60
60	117	1.56	60
60	118	1.56	60
60	151	2.06	60
60	152	2.06	60
60	179	2.56	60
60	180	2.56	60
60	213	3.06	60
60	214	3.06	60
60	241	3.56	60
60	242	3.56	60
60	275	4.06	60
60	276	4.06	60
60	303	4.56	60
60	304	4.56	60
60	337	5.06	60
60	338	5.06	60
60	365	5.56	60
60	366	5.56	60
60	399	6.06	60
60	400	6.06	60
60	427	6.56	60
60	428	6.56	60
60	461	7.06	60
60	462	7.06	60
60	489	7.56	60
60	490	7.56	60
60	523	8.06	60
60	524	8.06	60
60	551	8.56	60
60	552	8.56	60
60	585	9.06	60
60	586	9.06	60
60	613	9.56	60
60	614	9.56	60
61	27	0.06	1
61	55	0.56	2
61	89	1.06	3
61	117	1.56	4
61	151	2.06	5
61	179	2.56	6
61	213	3.06	7
61	241	3.56	8
61	275	4.06	9
61	303	4.56	10
61	337	5.06	11
61	365	5.56	12
61	399	6.06	13
61	427	6.56	14
61	461	7.06	15
61	489	7.56	16
61	523	8.06	17
61	551	8.56	18
61	585	9.06	19
61	613	9.56	20
62	28	0.06	1
62	56	0.56	2
62	90	1.06	3
62	118	1.56	4
62	152	2.06	5
62	180	2.56	6
62	214	3.06	7
62	242	3.56	8
62	276	4.06	9
62	304	4.56	10
62	338	5.06	11
62	366	5.56	12
62	400	6.06	13
62	428	6.56	14
62	462	7.06	15
62	490	7.56	16
62	524	8.06	17
62	552	8.56	18
62	586	9.06	19
62	614	9.56	20
63	29	0.06	60
63	57	0.56	60
63	91	1.06	60
63	119	1.56	60
63	153	2.06	60
63	181	2.56	60
63	215	3.06	60
63	243	3.56	60
63	277	4.06	60
63	305	4.56	60
63	339	5.06	60
63	367	5.56	60
63	401	6.06	60
63	429	6.56	60
63	463	7.06	60
63	491	7.56	60
63	525	8.06	60
63	553	8.56	60
63	587	9.06	60
63	615	9.56	60
64	29	0.06	1
64	57	0.56	2
64	91	1.06	3
64	119	1.56	4
64	153	2.06	5
64	181	2.56	6
64	215	3.06	7
64	243	3.56	8
64	277	4.06	9
64	305	4.56	10
64	339	5.06	11
64	367	5.56	12
64	401	6.06	13
64	429	6.56	14
64	463	7.06	15
64	491	7.56	16
64	525	8.06	17
64	553	8.56	18
64	587	9.06	19
64	615	9.56	20

