version 2
run simpleNet-0-20181107-05:30:25-31356
attr configname simpleNet
attr datetime 20181107-05:30:25
attr experiment simpleNet
attr inifile omnetpp.ini
attr iterationvars ""
attr iterationvarsf ""
attr measurement ""
attr network simpleNet
attr processid 31356
attr repetition 0
attr replication #0
attr resultdir results
attr runnumber 0
attr seedset 0

vector 0 simpleNet.node[0] numInQueue:vector ETV
attr interpolationmode none
attr source numInQueue
attr title "total num in queue, vector"
vector 1 simpleNet.node[0] numProcessed:vector ETV
attr interpolationmode none
attr source numProcessed
attr title "num processed in statRate time, vector"
vector 2 simpleNet.node[1] numInQueue:vector ETV
attr interpolationmode none
attr source numInQueue
attr title "total num in queue, vector"
vector 3 simpleNet.node[1] numProcessed:vector ETV
attr interpolationmode none
attr source numProcessed
attr title "num processed in statRate time, vector"
vector 4 simpleNet.node[2] numInQueue:vector ETV
attr interpolationmode none
attr source numInQueue
attr title "total num in queue, vector"
vector 5 simpleNet.node[2] numProcessed:vector ETV
attr interpolationmode none
attr source numProcessed
attr title "num processed in statRate time, vector"
vector 6 simpleNet.node[3] numInQueue:vector ETV
attr interpolationmode none
attr source numInQueue
attr title "total num in queue, vector"
vector 7 simpleNet.node[3] numProcessed:vector ETV
attr interpolationmode none
attr source numProcessed
attr title "num processed in statRate time, vector"
vector 8 simpleNet.node[0] completionTime:vector ETV
attr interpolationmode none
attr source completionTime
attr title "completionTime, vector"
vector 9 simpleNet.node[3] completionTime:vector ETV
attr interpolationmode none
attr source completionTime
attr title "completionTime, vector"
0	2	0	0
0	1074	0.5	0
0	1928	1	0
0	2782	1.5	0
0	3636	2	0
0	4490	2.5	0
0	5344	3	0
0	6198	3.5	0
0	7052	4	0
0	7906	4.5	0
0	8760	5	0
0	9614	5.5	0
0	10468	6	0
0	11322	6.5	0
0	12176	7	0
0	13030	7.5	0
0	13884	8	0
0	14738	8.5	0
0	15592	9	0
0	16446	9.5	0
0	17298	10	0
0	17485	10.5	0
1	2	0	0
1	1074	0.5	77
1	1928	1	50
1	2782	1.5	50
1	3636	2	50
1	4490	2.5	50
1	5344	3	50
1	6198	3.5	50
1	7052	4	50
1	7906	4.5	50
1	8760	5	50
1	9614	5.5	50
1	10468	6	50
1	11322	6.5	50
1	12176	7	50
1	13030	7.5	50
1	13884	8	50
1	14738	8.5	50
1	15592	9	50
1	16446	9.5	50
1	17298	10	50
1	17485	10.5	23
2	3	0	0
2	1075	0.5	122
2	1929	1	297
2	2783	1.5	472
2	3637	2	647
2	4491	2.5	822
2	5345	3	997
2	6199	3.5	1172
2	7053	4	1347
2	7907	4.5	1522
2	8761	5	1697
2	9615	5.5	1872
2	10469	6	2047
2	11323	6.5	2222
2	12177	7	2397
2	13031	7.5	2572
2	13885	8	2747
2	14739	8.5	2922
2	15593	9	3097
2	16447	9.5	3272
2	17299	10	3447
2	17486	10.5	3450
3	3	0	0
3	1075	0.5	152
3	1929	1	100
3	2783	1.5	100
3	3637	2	100
3	4491	2.5	100
3	5345	3	100
3	6199	3.5	100
3	7053	4	100
3	7907	4.5	100
3	8761	5	100
3	9615	5.5	100
3	10469	6	100
3	11323	6.5	100
3	12177	7	100
3	13031	7.5	100
3	13885	8	100
3	14739	8.5	100
3	15593	9	100
3	16447	9.5	100
3	17299	10	100
3	17486	10.5	48
4	4	0	0
4	1076	0.5	0
4	1930	1	0
4	2784	1.5	0
4	3638	2	0
4	4492	2.5	0
4	5346	3	0
4	6200	3.5	0
4	7054	4	0
4	7908	4.5	0
4	8762	5	0
4	9616	5.5	0
4	10470	6	0
4	11324	6.5	0
4	12178	7	0
4	13032	7.5	0
4	13886	8	0
4	14740	8.5	0
4	15594	9	0
4	16448	9.5	0
4	17300	10	0
4	17487	10.5	0
5	4	0	0
5	1076	0.5	154
5	1930	1	100
5	2784	1.5	100
5	3638	2	100
5	4492	2.5	100
5	5346	3	100
5	6200	3.5	100
5	7054	4	100
5	7908	4.5	100
5	8762	5	100
5	9616	5.5	100
5	10470	6	100
5	11324	6.5	100
5	12178	7	100
5	13032	7.5	100
5	13886	8	100
5	14740	8.5	100
5	15594	9	100
5	16448	9.5	100
5	17300	10	100
5	17487	10.5	46
6	6	0	0
6	1077	0.5	0
6	1931	1	0
6	2785	1.5	0
6	3639	2	0
6	4493	2.5	0
6	5347	3	0
6	6201	3.5	0
6	7055	4	0
6	7909	4.5	0
6	8763	5	0
6	9617	5.5	0
6	10471	6	0
6	11325	6.5	0
6	12179	7	0
6	13033	7.5	0
6	13887	8	0
6	14741	8.5	0
6	15595	9	0
6	16449	9.5	0
6	17301	10	0
6	17488	10.5	0
7	6	0	0
7	1077	0.5	76
7	1931	1	50
7	2785	1.5	50
7	3639	2	50
7	4493	2.5	50
7	5347	3	50
7	6201	3.5	50
7	7055	4	50
7	7909	4.5	50
7	8763	5	50
7	9617	5.5	50
7	10471	6	50
7	11325	6.5	50
7	12179	7	50
7	13033	7.5	50
7	13887	8	50
7	14741	8.5	50
7	15595	9	50
7	16449	9.5	50
7	17301	10	50
7	17488	10.5	24
8	315	0.18	0.18
8	326	0.1825	0.18
8	334	0.185	0.18
8	342	0.1875	0.18
8	354	0.19	0.18
8	362	0.1925	0.18
8	370	0.195	0.18
8	378	0.1975	0.18
8	389	0.2	0.18
8	399	0.2025	0.18
8	407	0.205	0.18
8	415	0.2075	0.18
8	427	0.21	0.18
8	438	0.2125	0.18
8	446	0.215	0.18
8	454	0.2175	0.18
8	465	0.22	0.18
8	475	0.2225	0.18
8	483	0.225	0.18
8	491	0.2275	0.18
8	503	0.23	0.18
8	513	0.2325	0.18
8	521	0.235	0.18
8	529	0.2375	0.18
8	540	0.24	0.18
8	551	0.2425	0.18
8	558	0.245	0.18
8	565	0.2475	0.18
8	576	0.25	0.18
8	585	0.2525	0.18
8	592	0.255	0.18
8	599	0.2575	0.18
8	609	0.26	0.18
8	619	0.2625	0.18
8	626	0.265	0.18
8	633	0.2675	0.18
8	644	0.27	0.18
8	654	0.2725	0.18
8	659	0.275	0.18
8	664	0.2775	0.18
8	672	0.28	0.18
8	680	0.2825	0.18
8	685	0.285	0.18
8	690	0.2875	0.18
8	699	0.29	0.18
8	707	0.2925	0.18
8	712	0.295	0.18
8	717	0.2975	0.18
8	725	0.3	0.18
8	735	0.3025	0.18
8	793	0.33	0.205
8	827	0.35	0.2225
8	861	0.37	0.24
8	895	0.39	0.2575
8	929	0.41	0.275
8	963	0.43	0.2925
8	997	0.45	0.31
8	1031	0.47	0.3275
8	1065	0.49	0.345
8	1103	0.51	0.3625
8	1137	0.53	0.38
8	1171	0.55	0.3975
8	1205	0.57	0.415
8	1239	0.59	0.4325
8	1273	0.61	0.45
8	1307	0.63	0.4675
8	1341	0.65	0.485
8	1375	0.67	0.5025
8	1409	0.69	0.52
8	1443	0.71	0.5375
8	1477	0.73	0.555
8	1511	0.75	0.5725
8	1545	0.77	0.59
8	1579	0.79	0.6075
8	1613	0.81	0.625
8	1647	0.83	0.6425
8	1681	0.85	0.66
8	1715	0.87	0.6775
8	1749	0.89	0.695
8	1783	0.91	0.7125
8	1817	0.93	0.73
8	1851	0.95	0.7475
8	1885	0.97	0.765
8	1919	0.99	0.7825
8	1957	1.01	0.8
8	1991	1.03	0.8175
8	2025	1.05	0.835
8	2059	1.07	0.8525
8	2093	1.09	0.87
8	2127	1.11	0.8875
8	2161	1.13	0.905
8	2195	1.15	0.9225
8	2229	1.17	0.94
8	2263	1.19	0.9575
8	2297	1.21	0.975
8	2331	1.23	0.9925
8	2365	1.25	1.01
8	2399	1.27	1.0275
8	2433	1.29	1.045
8	2467	1.31	1.0625
8	2501	1.33	1.08
8	2535	1.35	1.0975
8	2569	1.37	1.115
8	2603	1.39	1.1325
8	2637	1.41	1.15
8	2671	1.43	1.1675
8	2705	1.45	1.185
8	2739	1.47	1.2025
8	2773	1.49	1.22
8	2811	1.51	1.2375
8	2845	1.53	1.255
8	2879	1.55	1.2725
8	2913	1.57	1.29
8	2947	1.59	1.3075
8	2981	1.61	1.325
8	3015	1.63	1.3425
8	3049	1.65	1.36
8	3083	1.67	1.3775
8	3117	1.69	1.395
8	3151	1.71	1.4125
8	3185	1.73	1.43
8	3219	1.75	1.4475
8	3253	1.77	1.465
8	3287	1.79	1.4825
8	3321	1.81	1.5
8	3355	1.83	1.5175
8	3389	1.85	1.535
8	3423	1.87	1.5525
8	3457	1.89	1.57
8	3491	1.91	1.5875
8	3525	1.93	1.605
8	3559	1.95	1.6225
8	3593	1.97	1.64
8	3627	1.99	1.6575
8	3665	2.01	1.675
8	3699	2.03	1.6925
8	3733	2.05	1.71
8	3767	2.07	1.7275
8	3801	2.09	1.745
8	3835	2.11	1.7625
8	3869	2.13	1.78
8	3903	2.15	1.7975
8	3937	2.17	1.815
8	3971	2.19	1.8325
8	4005	2.21	1.85
8	4039	2.23	1.8675
8	4073	2.25	1.885
8	4107	2.27	1.9025
8	4141	2.29	1.92
8	4175	2.31	1.9375
8	4209	2.33	1.955
8	4243	2.35	1.9725
8	4277	2.37	1.99
8	4311	2.39	2.0075
8	4345	2.41	2.025
8	4379	2.43	2.0425
8	4413	2.45	2.06
8	4447	2.47	2.0775
8	4481	2.49	2.095
8	4519	2.51	2.1125
8	4553	2.53	2.13
8	4587	2.55	2.1475
8	4621	2.57	2.165
8	4655	2.59	2.1825
8	4689	2.61	2.2
8	4723	2.63	2.2175
8	4757	2.65	2.235
8	4791	2.67	2.2525
8	4825	2.69	2.27
8	4859	2.71	2.2875
8	4893	2.73	2.305
8	4927	2.75	2.3225
8	4961	2.77	2.34
8	4995	2.79	2.3575
8	5029	2.81	2.375
8	5063	2.83	2.3925
8	5097	2.85	2.41
8	5131	2.87	2.4275
8	5165	2.89	2.445
8	5199	2.91	2.4625
8	5233	2.93	2.48
8	5267	2.95	2.4975
8	5301	2.97	2.515
8	5335	2.99	2.5325
8	5373	3.01	2.55
8	5407	3.03	2.5675
8	5441	3.05	2.585
8	5475	3.07	2.6025
8	5509	3.09	2.62
8	5543	3.11	2.6375
8	5577	3.13	2.655
8	5611	3.15	2.6725
8	5645	3.17	2.69
8	5679	3.19	2.7075
8	5713	3.21	2.725
8	5747	3.23	2.7425
8	5781	3.25	2.76
8	5815	3.27	2.7775
8	5849	3.29	2.795
8	5883	3.31	2.8125
8	5917	3.33	2.83
8	5951	3.35	2.8475
8	5985	3.37	2.865
8	6019	3.39	2.8825
8	6053	3.41	2.9
8	6087	3.43	2.9175
8	6121	3.45	2.935
8	6155	3.47	2.9525
8	6189	3.49	2.97
8	6227	3.51	2.9875
8	6261	3.53	3.005
8	6295	3.55	3.0225
8	6329	3.57	3.04
8	6363	3.59	3.0575
8	6397	3.61	3.075
8	6431	3.63	3.0925
8	6465	3.65	3.11
8	6499	3.67	3.1275
8	6533	3.69	3.145
8	6567	3.71	3.1625
8	6601	3.73	3.18
8	6635	3.75	3.1975
8	6669	3.77	3.215
8	6703	3.79	3.2325
8	6737	3.81	3.25
8	6771	3.83	3.2675
8	6805	3.85	3.285
8	6839	3.87	3.3025
8	6873	3.89	3.32
8	6907	3.91	3.3375
8	6941	3.93	3.355
8	6975	3.95	3.3725
8	7009	3.97	3.39
8	7043	3.99	3.4075
8	7081	4.01	3.425
8	7115	4.03	3.4425
8	7149	4.05	3.46
8	7183	4.07	3.4775
8	7217	4.09	3.495
8	7251	4.11	3.5125
8	7285	4.13	3.53
8	7319	4.15	3.5475
8	7353	4.17	3.565
8	7387	4.19	3.5825
8	7421	4.21	3.6
8	7455	4.23	3.6175
8	7489	4.25	3.635
8	7523	4.27	3.6525
8	7557	4.29	3.67
8	7591	4.31	3.6875
8	7625	4.33	3.705
8	7659	4.35	3.7225
8	7693	4.37	3.74
8	7727	4.39	3.7575
8	7761	4.41	3.775
8	7795	4.43	3.7925
8	7829	4.45	3.81
8	7863	4.47	3.8275
8	7897	4.49	3.845
8	7935	4.51	3.8625
8	7969	4.53	3.88
8	8003	4.55	3.8975
8	8037	4.57	3.915
8	8071	4.59	3.9325
8	8105	4.61	3.95
8	8139	4.63	3.9675
8	8173	4.65	3.985
8	8207	4.67	4.0025
8	8241	4.69	4.02
8	8275	4.71	4.0375
8	8309	4.73	4.055
8	8343	4.75	4.0725
8	8377	4.77	4.09
8	8411	4.79	4.1075
8	8445	4.81	4.125
8	8479	4.83	4.1425
8	8513	4.85	4.16
8	8547	4.87	4.1775
8	8581	4.89	4.195
8	8615	4.91	4.2125
8	8649	4.93	4.23
8	8683	4.95	4.2475
8	8717	4.97	4.265
8	8751	4.99	4.2825
8	8789	5.01	4.3
8	8823	5.03	4.3175
8	8857	5.05	4.335
8	8891	5.07	4.3525
8	8925	5.09	4.37
8	8959	5.11	4.3875
8	8993	5.13	4.405
8	9027	5.15	4.4225
8	9061	5.17	4.44
8	9095	5.19	4.4575
8	9129	5.21	4.475
8	9163	5.23	4.4925
8	9197	5.25	4.51
8	9231	5.27	4.5275
8	9265	5.29	4.545
8	9299	5.31	4.5625
8	9333	5.33	4.58
8	9367	5.35	4.5975
8	9401	5.37	4.615
8	9435	5.39	4.6325
8	9469	5.41	4.65
8	9503	5.43	4.6675
8	9537	5.45	4.685
8	9571	5.47	4.7025
8	9605	5.49	4.72
8	9643	5.51	4.7375
8	9677	5.53	4.755
8	9711	5.55	4.7725
8	9745	5.57	4.79
8	9779	5.59	4.8075
8	9813	5.61	4.825
8	9847	5.63	4.8425
8	9881	5.65	4.86
8	9915	5.67	4.8775
8	9949	5.69	4.895
8	9983	5.71	4.9125
8	10017	5.73	4.93
8	10051	5.75	4.9475
8	10085	5.77	4.965
8	10119	5.79	4.9825
8	10153	5.81	5
8	10187	5.83	5.0175
8	10221	5.85	5.035
8	10255	5.87	5.0525
8	10289	5.89	5.07
8	10323	5.91	5.0875
8	10357	5.93	5.105
8	10391	5.95	5.1225
8	10425	5.97	5.14
8	10459	5.99	5.1575
8	10497	6.01	5.175
8	10531	6.03	5.1925
8	10565	6.05	5.21
8	10599	6.07	5.2275
8	10633	6.09	5.245
8	10667	6.11	5.2625
8	10701	6.13	5.28
8	10735	6.15	5.2975
8	10769	6.17	5.315
8	10803	6.19	5.3325
8	10837	6.21	5.35
8	10871	6.23	5.3675
8	10905	6.25	5.385
8	10939	6.27	5.4025
8	10973	6.29	5.42
8	11007	6.31	5.4375
8	11041	6.33	5.455
8	11075	6.35	5.4725
8	11109	6.37	5.49
8	11143	6.39	5.5075
8	11177	6.41	5.525
8	11211	6.43	5.5425
8	11245	6.45	5.56
8	11279	6.47	5.5775
8	11313	6.49	5.595
8	11351	6.51	5.6125
8	11385	6.53	5.63
8	11419	6.55	5.6475
8	11453	6.57	5.665
8	11487	6.59	5.6825
8	11521	6.61	5.7
8	11555	6.63	5.7175
8	11589	6.65	5.735
8	11623	6.67	5.7525
8	11657	6.69	5.77
8	11691	6.71	5.7875
8	11725	6.73	5.805
8	11759	6.75	5.8225
8	11793	6.77	5.84
8	11827	6.79	5.8575
8	11861	6.81	5.875
8	11895	6.83	5.8925
8	11929	6.85	5.91
8	11963	6.87	5.9275
8	11997	6.89	5.945
8	12031	6.91	5.9625
8	12065	6.93	5.98
8	12099	6.95	5.9975
8	12133	6.97	6.015
8	12167	6.99	6.0325
8	12205	7.01	6.05
8	12239	7.03	6.0675
8	12273	7.05	6.085
8	12307	7.07	6.1025
8	12341	7.09	6.12
8	12375	7.11	6.1375
8	12409	7.13	6.155
8	12443	7.15	6.1725
8	12477	7.17	6.19
8	12511	7.19	6.2075
8	12545	7.21	6.225
8	12579	7.23	6.2425
8	12613	7.25	6.26
8	12647	7.27	6.2775
8	12681	7.29	6.295
8	12715	7.31	6.3125
8	12749	7.33	6.33
8	12783	7.35	6.3475
8	12817	7.37	6.365
8	12851	7.39	6.3825
8	12885	7.41	6.4
8	12919	7.43	6.4175
8	12953	7.45	6.435
8	12987	7.47	6.4525
8	13021	7.49	6.47
8	13059	7.51	6.4875
8	13093	7.53	6.505
8	13127	7.55	6.5225
8	13161	7.57	6.54
8	13195	7.59	6.5575
8	13229	7.61	6.575
8	13263	7.63	6.5925
8	13297	7.65	6.61
8	13331	7.67	6.6275
8	13365	7.69	6.645
8	13399	7.71	6.6625
8	13433	7.73	6.68
8	13467	7.75	6.6975
8	13501	7.77	6.715
8	13535	7.79	6.7325
8	13569	7.81	6.75
8	13603	7.83	6.7675
8	13637	7.85	6.785
8	13671	7.87	6.8025
8	13705	7.89	6.82
8	13739	7.91	6.8375
8	13773	7.93	6.855
8	13807	7.95	6.8725
8	13841	7.97	6.89
8	13875	7.99	6.9075
8	13913	8.01	6.925
8	13947	8.03	6.9425
8	13981	8.05	6.96
8	14015	8.07	6.9775
8	14049	8.09	6.995
8	14083	8.11	7.0125
8	14117	8.13	7.03
8	14151	8.15	7.0475
8	14185	8.17	7.065
8	14219	8.19	7.0825
8	14253	8.21	7.1
8	14287	8.23	7.1175
8	14321	8.25	7.135
8	14355	8.27	7.1525
8	14389	8.29	7.17
8	14423	8.31	7.1875
8	14457	8.33	7.205
8	14491	8.35	7.2225
8	14525	8.37	7.24
8	14559	8.39	7.2575
8	14593	8.41	7.275
8	14627	8.43	7.2925
8	14661	8.45	7.31
8	14695	8.47	7.3275
8	14729	8.49	7.345
8	14767	8.51	7.3625
8	14801	8.53	7.38
8	14835	8.55	7.3975
8	14869	8.57	7.415
8	14903	8.59	7.4325
8	14937	8.61	7.45
8	14971	8.63	7.4675
8	15005	8.65	7.485
8	15039	8.67	7.5025
8	15073	8.69	7.52
8	15107	8.71	7.5375
8	15141	8.73	7.555
8	15175	8.75	7.5725
8	15209	8.77	7.59
8	15243	8.79	7.6075
8	15277	8.81	7.625
8	15311	8.83	7.6425
8	15345	8.85	7.66
8	15379	8.87	7.6775
8	15413	8.89	7.695
8	15447	8.91	7.7125
8	15481	8.93	7.73
8	15515	8.95	7.7475
8	15549	8.97	7.765
8	15583	8.99	7.7825
8	15621	9.01	7.8
8	15655	9.03	7.8175
8	15689	9.05	7.835
8	15723	9.07	7.8525
8	15757	9.09	7.87
8	15791	9.11	7.8875
8	15825	9.13	7.905
8	15859	9.15	7.9225
8	15893	9.17	7.94
8	15927	9.19	7.9575
8	15961	9.21	7.975
8	15995	9.23	7.9925
8	16029	9.25	8.01
8	16063	9.27	8.0275
8	16097	9.29	8.045
8	16131	9.31	8.0625
8	16165	9.33	8.08
8	16199	9.35	8.0975
8	16233	9.37	8.115
8	16267	9.39	8.1325
8	16301	9.41	8.15
8	16335	9.43	8.1675
8	16369	9.45	8.185
8	16403	9.47	8.2025
8	16437	9.49	8.22
8	16475	9.51	8.2375
8	16509	9.53	8.255
8	16543	9.55	8.2725
8	16577	9.57	8.29
8	16611	9.59	8.3075
8	16645	9.61	8.325
8	16679	9.63	8.3425
8	16713	9.65	8.36
8	16747	9.67	8.3775
8	16781	9.69	8.395
8	16815	9.71	8.4125
8	16849	9.73	8.43
8	16883	9.75	8.4475
8	16917	9.77	8.465
8	16951	9.79	8.4825
8	16985	9.81	8.5
8	17019	9.83	8.5175
8	17053	9.85	8.535
8	17087	9.87	8.5525
8	17121	9.89	8.57
8	17155	9.91	8.5875
8	17189	9.93	8.605
8	17223	9.95	8.6225
8	17257	9.97	8.64
8	17291	9.99	8.6575
8	17323	10.01	8.675
8	17346	10.03	8.6925
8	17362	10.05	8.71
8	17377	10.07	8.7275
8	17391	10.09	8.745
8	17405	10.11	8.7625
8	17418	10.13	8.78
8	17429	10.15	8.7975
8	17440	10.17	8.815
8	17449	10.19	8.8325
8	17456	10.21	8.85
8	17463	10.23	8.8675
8	17469	10.25	8.885
8	17474	10.27	8.9025
8	17479	10.29	8.92
8	17482	10.31	8.9375
9	317	0.18	0.18
9	391	0.2	0.18
9	467	0.22	0.18
9	542	0.24	0.18
9	611	0.26	0.18
9	674	0.28	0.18
9	727	0.3	0.18
9	768	0.32	0.18
9	807	0.34	0.18
9	840	0.36	0.18
9	874	0.38	0.18
9	908	0.4	0.18
9	942	0.42	0.18
9	976	0.44	0.18
9	1010	0.46	0.18
9	1044	0.48	0.18
9	1082	0.5	0.18
9	1116	0.52	0.18
9	1150	0.54	0.18
9	1184	0.56	0.18
9	1218	0.58	0.18
9	1252	0.6	0.18
9	1286	0.62	0.18
9	1320	0.64	0.18
9	1354	0.66	0.18
9	1388	0.68	0.18
9	1422	0.7	0.18
9	1456	0.72	0.18
9	1490	0.74	0.18
9	1524	0.76	0.18
9	1558	0.78	0.18
9	1592	0.8	0.18
9	1626	0.82	0.18
9	1660	0.84	0.18
9	1694	0.86	0.18
9	1728	0.88	0.18
9	1762	0.9	0.18
9	1796	0.92	0.18
9	1830	0.94	0.18
9	1864	0.96	0.18
9	1898	0.98	0.18
9	1936	1	0.18
9	1970	1.02	0.18
9	2004	1.04	0.18
9	2038	1.06	0.18
9	2072	1.08	0.18
9	2106	1.1	0.18
9	2140	1.12	0.18
9	2174	1.14	0.18
9	2208	1.16	0.18
9	2242	1.18	0.18
9	2276	1.2	0.18
9	2310	1.22	0.18
9	2344	1.24	0.18
9	2378	1.26	0.18
9	2412	1.28	0.18
9	2446	1.3	0.18
9	2480	1.32	0.18
9	2514	1.34	0.18
9	2548	1.36	0.18
9	2582	1.38	0.18
9	2616	1.4	0.18
9	2650	1.42	0.18
9	2684	1.44	0.18
9	2718	1.46	0.18
9	2752	1.48	0.18
9	2790	1.5	0.18
9	2824	1.52	0.18
9	2858	1.54	0.18
9	2892	1.56	0.18
9	2926	1.58	0.18
9	2960	1.6	0.18
9	2994	1.62	0.18
9	3028	1.64	0.18
9	3062	1.66	0.18
9	3096	1.68	0.18
9	3130	1.7	0.18
9	3164	1.72	0.18
9	3198	1.74	0.18
9	3232	1.76	0.18
9	3266	1.78	0.18
9	3300	1.8	0.18
9	3334	1.82	0.18
9	3368	1.84	0.18
9	3402	1.86	0.18
9	3436	1.88	0.18
9	3470	1.9	0.18
9	3504	1.92	0.18
9	3538	1.94	0.18
9	3572	1.96	0.18
9	3606	1.98	0.18
9	3644	2	0.18
9	3678	2.02	0.18
9	3712	2.04	0.18
9	3746	2.06	0.18
9	3780	2.08	0.18
9	3814	2.1	0.18
9	3848	2.12	0.18
9	3882	2.14	0.18
9	3916	2.16	0.18
9	3950	2.18	0.18
9	3984	2.2	0.18
9	4018	2.22	0.18
9	4052	2.24	0.18
9	4086	2.26	0.18
9	4120	2.28	0.18
9	4154	2.3	0.18
9	4188	2.32	0.18
9	4222	2.34	0.18
9	4256	2.36	0.18
9	4290	2.38	0.18
9	4324	2.4	0.18
9	4358	2.42	0.18
9	4392	2.44	0.18
9	4426	2.46	0.18
9	4460	2.48	0.18
9	4498	2.5	0.18
9	4532	2.52	0.18
9	4566	2.54	0.18
9	4600	2.56	0.18
9	4634	2.58	0.18
9	4668	2.6	0.18
9	4702	2.62	0.18
9	4736	2.64	0.18
9	4770	2.66	0.18
9	4804	2.68	0.18
9	4838	2.7	0.18
9	4872	2.72	0.18
9	4906	2.74	0.18
9	4940	2.76	0.18
9	4974	2.78	0.18
9	5008	2.8	0.18
9	5042	2.82	0.18
9	5076	2.84	0.18
9	5110	2.86	0.18
9	5144	2.88	0.18
9	5178	2.9	0.18
9	5212	2.92	0.18
9	5246	2.94	0.18
9	5280	2.96	0.18
9	5314	2.98	0.18
9	5352	3	0.18
9	5386	3.02	0.18
9	5420	3.04	0.18
9	5454	3.06	0.18
9	5488	3.08	0.18
9	5522	3.1	0.18
9	5556	3.12	0.18
9	5590	3.14	0.18
9	5624	3.16	0.18
9	5658	3.18	0.18
9	5692	3.2	0.18
9	5726	3.22	0.18
9	5760	3.24	0.18
9	5794	3.26	0.18
9	5828	3.28	0.18
9	5862	3.3	0.18
9	5896	3.32	0.18
9	5930	3.34	0.18
9	5964	3.36	0.18
9	5998	3.38	0.18
9	6032	3.4	0.18
9	6066	3.42	0.18
9	6100	3.44	0.18
9	6134	3.46	0.18
9	6168	3.48	0.18
9	6206	3.5	0.18
9	6240	3.52	0.18
9	6274	3.54	0.18
9	6308	3.56	0.18
9	6342	3.58	0.18
9	6376	3.6	0.18
9	6410	3.62	0.18
9	6444	3.64	0.18
9	6478	3.66	0.18
9	6512	3.68	0.18
9	6546	3.7	0.18
9	6580	3.72	0.18
9	6614	3.74	0.18
9	6648	3.76	0.18
9	6682	3.78	0.18
9	6716	3.8	0.18
9	6750	3.82	0.18
9	6784	3.84	0.18
9	6818	3.86	0.18
9	6852	3.88	0.18
9	6886	3.9	0.18
9	6920	3.92	0.18
9	6954	3.94	0.18
9	6988	3.96	0.18
9	7022	3.98	0.18
9	7060	4	0.18
9	7094	4.02	0.18
9	7128	4.04	0.18
9	7162	4.06	0.18
9	7196	4.08	0.18
9	7230	4.1	0.18
9	7264	4.12	0.18
9	7298	4.14	0.18
9	7332	4.16	0.18
9	7366	4.18	0.18
9	7400	4.2	0.18
9	7434	4.22	0.18
9	7468	4.24	0.18
9	7502	4.26	0.18
9	7536	4.28	0.18
9	7570	4.3	0.18
9	7604	4.32	0.18
9	7638	4.34	0.18
9	7672	4.36	0.18
9	7706	4.38	0.18
9	7740	4.4	0.18
9	7774	4.42	0.18
9	7808	4.44	0.18
9	7842	4.46	0.18
9	7876	4.48	0.18
9	7914	4.5	0.18
9	7948	4.52	0.18
9	7982	4.54	0.18
9	8016	4.56	0.18
9	8050	4.58	0.18
9	8084	4.6	0.18
9	8118	4.62	0.18
9	8152	4.64	0.18
9	8186	4.66	0.18
9	8220	4.68	0.18
9	8254	4.7	0.18
9	8288	4.72	0.18
9	8322	4.74	0.18
9	8356	4.76	0.18
9	8390	4.78	0.18
9	8424	4.8	0.18
9	8458	4.82	0.18
9	8492	4.84	0.18
9	8526	4.86	0.18
9	8560	4.88	0.18
9	8594	4.9	0.18
9	8628	4.92	0.18
9	8662	4.94	0.18
9	8696	4.96	0.18
9	8730	4.98	0.18
9	8768	5	0.18
9	8802	5.02	0.18
9	8836	5.04	0.18
9	8870	5.06	0.18
9	8904	5.08	0.18
9	8938	5.1	0.18
9	8972	5.12	0.18
9	9006	5.14	0.18
9	9040	5.16	0.18
9	9074	5.18	0.18
9	9108	5.2	0.18
9	9142	5.22	0.18
9	9176	5.24	0.18
9	9210	5.26	0.18
9	9244	5.28	0.18
9	9278	5.3	0.18
9	9312	5.32	0.18
9	9346	5.34	0.18
9	9380	5.36	0.18
9	9414	5.38	0.18
9	9448	5.4	0.18
9	9482	5.42	0.18
9	9516	5.44	0.18
9	9550	5.46	0.18
9	9584	5.48	0.18
9	9622	5.5	0.18
9	9656	5.52	0.18
9	9690	5.54	0.18
9	9724	5.56	0.18
9	9758	5.58	0.18
9	9792	5.6	0.18
9	9826	5.62	0.18
9	9860	5.64	0.18
9	9894	5.66	0.18
9	9928	5.68	0.18
9	9962	5.7	0.18
9	9996	5.72	0.18
9	10030	5.74	0.18
9	10064	5.76	0.18
9	10098	5.78	0.18
9	10132	5.8	0.18
9	10166	5.82	0.18
9	10200	5.84	0.18
9	10234	5.86	0.18
9	10268	5.88	0.18
9	10302	5.9	0.18
9	10336	5.92	0.18
9	10370	5.94	0.18
9	10404	5.96	0.18
9	10438	5.98	0.18
9	10476	6	0.18
9	10510	6.02	0.18
9	10544	6.04	0.18
9	10578	6.06	0.18
9	10612	6.08	0.18
9	10646	6.1	0.18
9	10680	6.12	0.18
9	10714	6.14	0.18
9	10748	6.16	0.18
9	10782	6.18	0.18
9	10816	6.2	0.18
9	10850	6.22	0.18
9	10884	6.24	0.18
9	10918	6.26	0.18
9	10952	6.28	0.18
9	10986	6.3	0.18
9	11020	6.32	0.18
9	11054	6.34	0.18
9	11088	6.36	0.18
9	11122	6.38	0.18
9	11156	6.4	0.18
9	11190	6.42	0.18
9	11224	6.44	0.18
9	11258	6.46	0.18
9	11292	6.48	0.18
9	11330	6.5	0.18
9	11364	6.52	0.18
9	11398	6.54	0.18
9	11432	6.56	0.18
9	11466	6.58	0.18
9	11500	6.6	0.18
9	11534	6.62	0.18
9	11568	6.64	0.18
9	11602	6.66	0.18
9	11636	6.68	0.18
9	11670	6.7	0.18
9	11704	6.72	0.18
9	11738	6.74	0.18
9	11772	6.76	0.18
9	11806	6.78	0.18
9	11840	6.8	0.18
9	11874	6.82	0.18
9	11908	6.84	0.18
9	11942	6.86	0.18
9	11976	6.88	0.18
9	12010	6.9	0.18
9	12044	6.92	0.18
9	12078	6.94	0.18
9	12112	6.96	0.18
9	12146	6.98	0.18
9	12184	7	0.18
9	12218	7.02	0.18
9	12252	7.04	0.18
9	12286	7.06	0.18
9	12320	7.08	0.18
9	12354	7.1	0.18
9	12388	7.12	0.18
9	12422	7.14	0.18
9	12456	7.16	0.18
9	12490	7.18	0.18
9	12524	7.2	0.18
9	12558	7.22	0.18
9	12592	7.24	0.18
9	12626	7.26	0.18
9	12660	7.28	0.18
9	12694	7.3	0.18
9	12728	7.32	0.18
9	12762	7.34	0.18
9	12796	7.36	0.18
9	12830	7.38	0.18
9	12864	7.4	0.18
9	12898	7.42	0.18
9	12932	7.44	0.18
9	12966	7.46	0.18
9	13000	7.48	0.18
9	13038	7.5	0.18
9	13072	7.52	0.18
9	13106	7.54	0.18
9	13140	7.56	0.18
9	13174	7.58	0.18
9	13208	7.6	0.18
9	13242	7.62	0.18
9	13276	7.64	0.18
9	13310	7.66	0.18
9	13344	7.68	0.18
9	13378	7.7	0.18
9	13412	7.72	0.18
9	13446	7.74	0.18
9	13480	7.76	0.18
9	13514	7.78	0.18
9	13548	7.8	0.18
9	13582	7.82	0.18
9	13616	7.84	0.18
9	13650	7.86	0.18
9	13684	7.88	0.18
9	13718	7.9	0.18
9	13752	7.92	0.18
9	13786	7.94	0.18
9	13820	7.96	0.18
9	13854	7.98	0.18
9	13892	8	0.18
9	13926	8.02	0.18
9	13960	8.04	0.18
9	13994	8.06	0.18
9	14028	8.08	0.18
9	14062	8.1	0.18
9	14096	8.12	0.18
9	14130	8.14	0.18
9	14164	8.16	0.18
9	14198	8.18	0.18
9	14232	8.2	0.18
9	14266	8.22	0.18
9	14300	8.24	0.18
9	14334	8.26	0.18
9	14368	8.28	0.18
9	14402	8.3	0.18
9	14436	8.32	0.18
9	14470	8.34	0.18
9	14504	8.36	0.18
9	14538	8.38	0.18
9	14572	8.4	0.18
9	14606	8.42	0.18
9	14640	8.44	0.18
9	14674	8.46	0.18
9	14708	8.48	0.18
9	14746	8.5	0.18
9	14780	8.52	0.18
9	14814	8.54	0.18
9	14848	8.56	0.18
9	14882	8.58	0.18
9	14916	8.6	0.18
9	14950	8.62	0.18
9	14984	8.64	0.18
9	15018	8.66	0.18
9	15052	8.68	0.18
9	15086	8.7	0.18
9	15120	8.72	0.18
9	15154	8.74	0.18
9	15188	8.76	0.18
9	15222	8.78	0.18
9	15256	8.8	0.18
9	15290	8.82	0.18
9	15324	8.84	0.18
9	15358	8.86	0.18
9	15392	8.88	0.18
9	15426	8.9	0.18
9	15460	8.92	0.18
9	15494	8.94	0.18
9	15528	8.96	0.18
9	15562	8.98	0.18
9	15600	9	0.18
9	15634	9.02	0.18
9	15668	9.04	0.18
9	15702	9.06	0.18
9	15736	9.08	0.18
9	15770	9.1	0.18
9	15804	9.12	0.18
9	15838	9.14	0.18
9	15872	9.16	0.18
9	15906	9.18	0.18
9	15940	9.2	0.18
9	15974	9.22	0.18
9	16008	9.24	0.18
9	16042	9.26	0.18
9	16076	9.28	0.18
9	16110	9.3	0.18
9	16144	9.32	0.18
9	16178	9.34	0.18
9	16212	9.36	0.18
9	16246	9.38	0.18
9	16280	9.4	0.18
9	16314	9.42	0.18
9	16348	9.44	0.18
9	16382	9.46	0.18
9	16416	9.48	0.18
9	16454	9.5	0.18
9	16488	9.52	0.18
9	16522	9.54	0.18
9	16556	9.56	0.18
9	16590	9.58	0.18
9	16624	9.6	0.18
9	16658	9.62	0.18
9	16692	9.64	0.18
9	16726	9.66	0.18
9	16760	9.68	0.18
9	16794	9.7	0.18
9	16828	9.72	0.18
9	16862	9.74	0.18
9	16896	9.76	0.18
9	16930	9.78	0.18
9	16964	9.8	0.18
9	16998	9.82	0.18
9	17032	9.84	0.18
9	17066	9.86	0.18
9	17100	9.88	0.18
9	17134	9.9	0.18
9	17168	9.92	0.18
9	17202	9.94	0.18
9	17236	9.96	0.18
9	17270	9.98	0.18
9	17306	10	0.18
9	17331	10.02	0.18
9	17350	10.04	0.18
9	17365	10.06	0.18
9	17380	10.08	0.18
9	17394	10.1	0.18
9	17407	10.12	0.18
9	17420	10.14	0.18
9	17431	10.16	0.18

