version 2
run simpleNet-0-20181107-06:18:34-31592
attr configname simpleNet
attr datetime 20181107-06:18:34
attr experiment simpleNet
attr inifile omnetpp.ini
attr iterationvars ""
attr iterationvarsf ""
attr measurement ""
attr network simpleNet
attr processid 31592
attr repetition 0
attr replication #0
attr resultdir results
attr runnumber 0
attr seedset 0

vector 0 simpleNet.node[0] numInQueue:vector ETV
attr interpolationmode none
attr source numInQueue
attr title "total num in queue, vector"
vector 1 simpleNet.node[0] numProcessed:vector ETV
attr interpolationmode none
attr source numProcessed
attr title "num processed in statRate time, vector"
vector 2 simpleNet.node[1] numInQueue:vector ETV
attr interpolationmode none
attr source numInQueue
attr title "total num in queue, vector"
vector 3 simpleNet.node[1] numProcessed:vector ETV
attr interpolationmode none
attr source numProcessed
attr title "num processed in statRate time, vector"
vector 4 simpleNet.node[2] numInQueue:vector ETV
attr interpolationmode none
attr source numInQueue
attr title "total num in queue, vector"
vector 5 simpleNet.node[2] numProcessed:vector ETV
attr interpolationmode none
attr source numProcessed
attr title "num processed in statRate time, vector"
vector 6 simpleNet.node[3] numInQueue:vector ETV
attr interpolationmode none
attr source numInQueue
attr title "total num in queue, vector"
vector 7 simpleNet.node[3] numProcessed:vector ETV
attr interpolationmode none
attr source numProcessed
attr title "num processed in statRate time, vector"
vector 8 simpleNet.node[0] completionTime:vector ETV
attr interpolationmode none
attr source completionTime
attr title "completionTime, vector"
vector 9 simpleNet.node[3] completionTime:vector ETV
attr interpolationmode none
attr source completionTime
attr title "completionTime, vector"
0	2	0	0
0	821	0.5	0
0	1806	1	0
0	2775	1.5	0
0	3800	2	0
0	4719	2.5	0
0	5700	3	0
0	6808	3.5	0
0	7922	4	0
0	8684	4.5	0
0	9628	5	0
0	10673	5.5	0
0	11562	6	0
0	12663	6.5	0
0	13631	7	0
0	14759	7.5	0
0	15684	8	0
0	16681	8.5	0
0	17864	9	0
0	18808	9.5	0
0	19890	10	0
0	20215	10.5	0
1	2	0	0
1	821	0.5	69
1	1806	1	103
1	2775	1.5	98
1	3800	2	96
1	4719	2.5	96
1	5700	3	96
1	6808	3.5	109
1	7922	4	113
1	8684	4.5	76
1	9628	5	97
1	10673	5.5	99
1	11562	6	88
1	12663	6.5	109
1	13631	7	100
1	14759	7.5	110
1	15684	8	93
1	16681	8.5	100
1	17864	9	115
1	18808	9.5	98
1	19890	10	102
1	20215	10.5	46
2	3	0	0
2	822	0.5	0
2	1807	1	0
2	2776	1.5	0
2	3801	2	0
2	4720	2.5	0
2	5701	3	0
2	6809	3.5	0
2	7923	4	1
2	8685	4.5	3
2	9629	5	0
2	10674	5.5	0
2	11563	6	0
2	12664	6.5	0
2	13632	7	0
2	14760	7.5	0
2	15685	8	9
2	16682	8.5	0
2	17865	9	1
2	18809	9.5	13
2	19891	10	6
2	20216	10.5	0
3	3	0	0
3	822	0.5	144
3	1807	1	199
3	2776	1.5	191
3	3801	2	195
3	4720	2.5	199
3	5701	3	192
3	6809	3.5	209
3	7923	4	228
3	8685	4.5	155
3	9629	5	188
3	10674	5.5	201
3	11563	6	183
3	12664	6.5	212
3	13632	7	201
3	14760	7.5	223
3	15685	8	185
3	16682	8.5	200
3	17865	9	230
3	18809	9.5	187
3	19891	10	216
3	20216	10.5	88
4	4	0	0
4	823	0.5	0
4	1808	1	0
4	2777	1.5	0
4	3802	2	0
4	4721	2.5	0
4	5702	3	0
4	6810	3.5	0
4	7924	4	0
4	8686	4.5	0
4	9630	5	0
4	10675	5.5	0
4	11564	6	0
4	12665	6.5	0
4	13633	7	0
4	14761	7.5	0
4	15686	8	0
4	16683	8.5	0
4	17866	9	0
4	18810	9.5	0
4	19892	10	0
4	20217	10.5	0
5	4	0	0
5	823	0.5	140
5	1808	1	204
5	2777	1.5	193
5	3802	2	193
5	4721	2.5	192
5	5702	3	194
5	6810	3.5	217
5	7924	4	227
5	8686	4.5	154
5	9630	5	184
5	10675	5.5	209
5	11564	6	176
5	12665	6.5	213
5	13633	7	203
5	14761	7.5	220
5	15686	8	185
5	16683	8.5	198
5	17866	9	237
5	18810	9.5	186
5	19892	10	210
5	20217	10.5	91
6	6	0	0
6	824	0.5	0
6	1809	1	0
6	2778	1.5	0
6	3803	2	0
6	4722	2.5	0
6	5703	3	0
6	6811	3.5	0
6	7925	4	0
6	8687	4.5	0
6	9631	5	0
6	10676	5.5	0
6	11565	6	0
6	12666	6.5	0
6	13634	7	0
6	14762	7.5	0
6	15687	8	0
6	16684	8.5	0
6	17867	9	0
6	18811	9.5	0
6	19893	10	0
6	20218	10.5	0
7	6	0	0
7	824	0.5	74
7	1809	1	99
7	2778	1.5	96
7	3803	2	93
7	4722	2.5	100
7	5703	3	98
7	6811	3.5	102
7	7925	4	116
7	8687	4.5	79
7	9631	5	92
7	10676	5.5	105
7	11565	6	89
7	12666	6.5	104
7	13634	7	103
7	14762	7.5	111
7	15687	8	93
7	16684	8.5	98
7	17867	9	118
7	18811	9.5	90
7	19893	10	111
7	20218	10.5	42
8	132	0.18	0.18
8	161	0.196771217336	0.18
8	173	0.204178006826	0.18
8	200	0.217279351599	0.18
8	202	0.217490912081	0.18
8	228	0.233603341858	0.18
8	311	0.270553536838	0.18
8	376	0.302754074116	0.18
8	444	0.333826529984	0.18
8	475	0.348351824467	0.18
8	540	0.378182696047	0.18
8	568	0.386937060658	0.18
8	601	0.401483315142	0.18
8	607	0.405962699972	0.18
8	619	0.410148734204	0.18
8	628	0.413797695243	0.18
8	630	0.414298897234	0.18
8	632	0.41446978738	0.18
8	637	0.416807536668	0.18
8	664	0.42922839272	0.18
8	692	0.440878207251	0.18
8	708	0.450026513389	0.18
8	726	0.456813004918	0.18
8	747	0.466244339797	0.18
8	763	0.472358515029	0.18
8	779	0.482765646507	0.18
8	818	0.499496940245	0.18
8	826	0.500995924405	0.18
8	829	0.501915345809	0.18
8	856	0.517516445992	0.18
8	858	0.51838365749	0.18
8	860	0.518653795309	0.18
8	864	0.520496926956	0.18
8	871	0.52376630507	0.18
8	946	0.559755100928	0.18
8	956	0.566669787405	0.18
8	961	0.570687505885	0.18
8	971	0.575361543779	0.18
8	978	0.576937039475	0.18
8	983	0.580918576059	0.18
8	1001	0.588633942312	0.18
8	1041	0.613045125858	0.18
8	1044	0.614395273119	0.18
8	1047	0.6153343787	0.18
8	1051	0.617089150139	0.18
8	1059	0.618899490526	0.18
8	1076	0.630175650965	0.18
8	1255	0.730643167504	0.18
8	1263	0.731869061509	0.18
8	1297	0.744580678023	0.18
8	1329	0.762597217001	0.18
8	1338	0.766354526709	0.18
8	1347	0.76983916065	0.18
8	1391	0.791710058278	0.18
8	1411	0.798552272642	0.18
8	1427	0.806389883256	0.18
8	1450	0.818731579119	0.18
8	1453	0.819313986508	0.18
8	1477	0.828294591873	0.18
8	1492	0.834751670831	0.18
8	1517	0.847609111916	0.18
8	1545	0.860698395308	0.18
8	1549	0.861693743481	0.18
8	1570	0.873588585256	0.18
8	1579	0.876843297024	0.18
8	1586	0.881284400577	0.18
8	1593	0.882811016796	0.18
8	1619	0.901525433751	0.18
8	1630	0.903570065599	0.18
8	1635	0.905074245047	0.18
8	1649	0.911731572893	0.18
8	1698	0.937733726201	0.18
8	1701	0.938862657544	0.18
8	1748	0.966077532988	0.18
8	1750	0.966320710549	0.18
8	1779	0.986419908536	0.18
8	1782	0.986640663741	0.18
8	1788	0.989608923827	0.18
8	1818	1.006360503672	0.18
8	1848	1.023347007036	0.18
8	1853	1.024415111669	0.18
8	1878	1.043130734482	0.18
8	1885	1.046477209563	0.18
8	1902	1.054356016431	0.18
8	1913	1.061022204552	0.18
8	1918	1.062531679863	0.18
8	1932	1.073823388643	0.18
8	1938	1.077035748281	0.18
8	1947	1.083042846357	0.18
8	1957	1.088830915697	0.18
8	2003	1.117341050319	0.18
8	2011	1.121443381438	0.18
8	2080	1.162201469992	0.18
8	2092	1.168915480442	0.18
8	2115	1.18	0.18
8	2145	1.19630043055	0.18
8	2152	1.19920765113	0.18
8	2154	1.19923048254	0.18
8	2175	1.20637717206	0.18
8	2206	1.22469924794	0.18
8	2217	1.23029815994	0.18
8	2220	1.23108099596	0.18
8	2257	1.24684430786	0.18
8	2287	1.26320285417	0.18
8	2302	1.27010920147	0.18
8	2305	1.27110641307	0.18
8	2310	1.27332456176	0.18
8	2324	1.27806201471	0.18
8	2349	1.29032196281	0.18
8	2366	1.29839727016	0.18
8	2386	1.3057850205	0.18
8	2400	1.31334104913	0.18
8	2405	1.31531136801	0.18
8	2414	1.31928307297	0.18
8	2416	1.31985941099	0.18
8	2420	1.32166488522	0.18
8	2443	1.33156811007	0.18
8	2456	1.33980461053	0.18
8	2492	1.35542046364	0.18
8	2501	1.35966188844	0.18
8	2512	1.3650819062	0.18
8	2526	1.37316027399	0.18
8	2545	1.3836343391	0.18
8	2557	1.38621802038	0.18
8	2564	1.3906439559	0.18
8	2582	1.40204243425	0.18
8	2603	1.41292890223	0.18
8	2612	1.41558691829	0.18
8	2616	1.41617930339	0.18
8	2619	1.41847793386	0.18
8	2655	1.43819538934	0.18
8	2657	1.43829849302	0.18
8	2684	1.45209205818	0.18
8	2693	1.45529027788	0.18
8	2706	1.46328296404	0.18
8	2724	1.47264032609	0.18
8	2748	1.48451579911	0.18
8	2761	1.49315642353	0.18
8	2765	1.49376445011	0.18
8	2767	1.495175881	0.18
8	2780	1.50052930431	0.18
8	2848	1.54298290866	0.18
8	2903	1.57528319558	0.18
8	2942	1.59434522571	0.18
8	3000	1.62445517951	0.18
8	3012	1.62973465681	0.18
8	3051	1.6521063516	0.18
8	3058	1.65578122976	0.18
8	3060	1.65623168894	0.18
8	3079	1.66948077505	0.18
8	3093	1.67372762975	0.18
8	3112	1.68381794117	0.18
8	3129	1.69480658656	0.18
8	3162	1.7089588572	0.18
8	3166	1.71238007368	0.18
8	3173	1.71777141986	0.18
8	3213	1.73701979418	0.18
8	3239	1.7579903303	0.18
8	3249	1.76033822412	0.18
8	3278	1.77904588593	0.18
8	3298	1.79008199912	0.18
8	3355	1.81954931064	0.18
8	3367	1.82671284603	0.18
8	3371	1.82705527948	0.18
8	3390	1.83903700841	0.18
8	3440	1.85855358496	0.18
8	3462	1.86949935992	0.18
8	3466	1.8701099164	0.18
8	3468	1.87025270849	0.18
8	3487	1.87855259094	0.18
8	3490	1.87910085901	0.18
8	3506	1.88513449503	0.18
8	3541	1.89982058686	0.18
8	3572	1.91102342522	0.18
8	3580	1.91358643103	0.18
8	3586	1.91699565108	0.18
8	3639	1.93860530298	0.18
8	3676	1.95590150913	0.18
8	3701	1.96500810021	0.18
8	3722	1.97094566784	0.18
8	3747	1.98234573389	0.18
8	3757	1.98634167481	0.18
8	3793	1.99782034986	0.18
8	3834	2.01584214533	0.18
8	3843	2.01698593399	0.18
8	3854	2.02164252506	0.18
8	3886	2.03021115648	0.18
8	3897	2.03574528393	0.18
8	3912	2.0410597431	0.18
8	3939	2.05247237644	0.18
8	3961	2.06011846097	0.18
8	3965	2.06258238113	0.18
8	3974	2.06603043396	0.18
8	3981	2.06854210363	0.18
8	4008	2.08222404355	0.18
8	4012	2.08354486679	0.18
8	4075	2.11550464197	0.18
8	4078	2.11743803022	0.18
8	4085	2.12229403091	0.18
8	4101	2.12954112897	0.18
8	4103	2.13034468774	0.18
8	4111	2.13671375656	0.18
8	4145	2.15433729318	0.18
8	4150	2.15685324862	0.18
8	4161	2.16333466428	0.18
8	4183	2.17603610156	0.18
8	4190	2.18	0.18
8	4211	2.19666652188	0.18
8	4232	2.20769505589	0.18
8	4268	2.23490315586	0.18
8	4285	2.24773861893	0.18
8	4289	2.25090116269	0.18
8	4305	2.26039418584	0.18
8	4328	2.27726709942	0.18
8	4330	2.2775989407	0.18
8	4353	2.2888363691	0.18
8	4363	2.29404861722	0.18
8	4381	2.30641914496	0.18
8	4398	2.31634878681	0.18
8	4401	2.31757506909	0.18
8	4420	2.32725685608	0.18
8	4457	2.34934414324	0.18
8	4460	2.35039038261	0.18
8	4469	2.35590192732	0.18
8	4486	2.36459425654	0.18
8	4525	2.39068209188	0.18
8	4527	2.39152877528	0.18
8	4568	2.41743741919	0.18
8	4583	2.42909036443	0.18
8	4615	2.44235439174	0.18
8	4619	2.44397162634	0.18
8	4627	2.4490748441	0.18
8	4632	2.45386502994	0.18
8	4641	2.46165117469	0.18
8	4648	2.46372045185	0.18
8	4653	2.46457061077	0.18
8	4668	2.46996026578	0.18
8	4747	2.52019151896	0.18
8	4758	2.52698909219	0.18
8	4809	2.55724069664	0.18
8	4835	2.57479885381	0.18
8	4845	2.58235246416	0.18
8	4849	2.58395217992	0.18
8	4854	2.5856949837	0.18
8	4856	2.58717233773	0.18
8	4867	2.593907089	0.18
8	4872	2.59497720446	0.18
8	4875	2.59623287108	0.18
8	4883	2.60241773067	0.18
8	4916	2.62396437501	0.18
8	4953	2.64546841433	0.18
8	4980	2.66001548058	0.18
8	5044	2.69498838354	0.18
8	5051	2.69767506661	0.18
8	5062	2.70396455479	0.18
8	5158	2.75525740187	0.18
8	5163	2.75639149052	0.18
8	5180	2.7630414211	0.18
8	5242	2.79261016505	0.18
8	5251	2.79558679695	0.18
8	5287	2.81166809033	0.18
8	5343	2.83375714656	0.18
8	5346	2.83412605561	0.18
8	5382	2.85195269093	0.18
8	5428	2.87374658211	0.18
8	5432	2.87419566637	0.18
8	5447	2.8817531946	0.18
8	5462	2.8887169881	0.18
8	5477	2.89367180407	0.18
8	5492	2.90253491529	0.18
8	5510	2.90995717768	0.18
8	5516	2.91090048166	0.18
8	5541	2.92140069484	0.18
8	5553	2.92805441397	0.18
8	5569	2.93335639166	0.18
8	5571	2.93359346399	0.18
8	5601	2.94917785598	0.18
8	5624	2.96149477435	0.18
8	5629	2.96271884679	0.18
8	5631	2.96303060539	0.18
8	5661	2.97968600234	0.18
8	5670	2.98300415888	0.18
8	5706	3.00295620556	0.18
8	5718	3.00829125734	0.18
8	5726	3.01071196465	0.18
8	5763	3.02993473648	0.18
8	5790	3.04395324435	0.18
8	5800	3.05166232572	0.18
8	5815	3.05876955371	0.18
8	5855	3.0771676943	0.18
8	5859	3.07832860674	0.18
8	5863	3.08210367295	0.18
8	5876	3.0896348162	0.18
8	5893	3.0974021507	0.18
8	5910	3.10479795494	0.18
8	5921	3.11325294847	0.18
8	5955	3.13020096254	0.18
8	5963	3.13361898128	0.18
8	5992	3.15072422923	0.18
8	6051	3.1787835597	0.18
8	6055	3.18	0.18
8	6072	3.18426878571	0.18
8	6092	3.19136981446	0.18
8	6106	3.19755003424	0.18
8	6120	3.2069296137	0.18
8	6127	3.20879632448	0.18
8	6168	3.22468138377	0.18
8	6179	3.22823693911	0.18
8	6221	3.2497924123	0.18
8	6226	3.25139682651	0.18
8	6240	3.25700770035	0.18
8	6248	3.2622537355	0.18
8	6270	3.2714720072	0.18
8	6293	3.2812207953	0.18
8	6298	3.28239227838	0.18
8	6304	3.28564161084	0.18
8	6351	3.30548380255	0.18
8	6354	3.30666723187	0.18
8	6363	3.30968471415	0.18
8	6365	3.31115318264	0.18
8	6372	3.31429505618	0.18
8	6398	3.32499480988	0.18
8	6400	3.32568348078	0.18
8	6414	3.33059054678	0.18
8	6451	3.3475142141	0.18
8	6454	3.34860173764	0.18
8	6456	3.34927006052	0.18
8	6478	3.35797626178	0.18
8	6491	3.36129368042	0.18
8	6522	3.37627115855	0.18
8	6528	3.38079675887	0.18
8	6532	3.3824550762	0.18
8	6543	3.38486052309	0.18
8	6576	3.39879901033	0.18
8	6600	3.41288184151	0.18
8	6618	3.41914268246	0.18
8	6638	3.42744072812	0.18
8	6674	3.44347999971	0.18
8	6712	3.45759330165	0.18
8	6730	3.46605262396	0.18
8	6753	3.47425174559	0.18
8	6765	3.4805717606	0.18
8	6767	3.48058558762	0.18
8	6845	3.51395397904	0.18
8	6893	3.53482610863	0.18
8	6904	3.54012150718	0.18
8	6917	3.5450173454	0.18
8	6920	3.54533260043	0.18
8	6940	3.55404793349	0.18
8	6975	3.56942846711	0.18
8	6995	3.57765985637	0.18
8	7008	3.58395500051	0.18
8	7010	3.58399751047	0.18
8	7015	3.58529435654	0.18
8	7024	3.58777938806	0.18
8	7026	3.58918322379	0.18
8	7038	3.59292890936	0.18
8	7057	3.59954711323	0.18
8	7072	3.6077079824	0.18
8	7082	3.61260232315	0.18
8	7088	3.61517047078	0.18
8	7103	3.62023254442	0.18
8	7115	3.62438309827	0.18
8	7121	3.62575299075	0.18
8	7125	3.62733085785	0.18
8	7127	3.62808401832	0.18
8	7182	3.65491757397	0.18
8	7198	3.66114245431	0.18
8	7226	3.67379635508	0.18
8	7234	3.67761282292	0.18
8	7238	3.68118592749	0.18
8	7250	3.68661701219	0.18
8	7264	3.69227754147	0.18
8	7270	3.69458520668	0.18
8	7274	3.69513315612	0.18
8	7341	3.72701806271	0.18
8	7364	3.74093764429	0.18
8	7387	3.75103980918	0.18
8	7411	3.76016415002	0.18
8	7426	3.76735358715	0.18
8	7452	3.77981630485	0.18
8	7473	3.7888050408	0.18
8	7484	3.79488589881	0.18
8	7501	3.80408743464	0.18
8	7508	3.80483070894	0.18
8	7543	3.82052249026	0.18
8	7550	3.82592943393	0.18
8	7572	3.83600245354	0.18567908697
8	7640	3.87218832016	0.21303537883
8	7642	3.87220437763	0.20737111351
8	7675	3.88660009822	0.21972086434
8	7711	3.90252090815	0.23403020622
8	7713	3.90284239576	0.23064909882
8	7732	3.91181304436	0.23683717278
8	7760	3.92453136833	0.24312071651
8	7773	3.92919725661	0.23328406258
8	7794	3.93863824723	0.23958395155
8	7799	3.94005594424	0.23360500936
8	7812	3.94667374887	0.23473247247
8	7826	3.95399429554	0.23802077625
8	7844	3.95972377619	0.23329597956
8	7853	3.96507452328	0.21496003925
8	7894	3.98697538782	0.22957330076
8	7896	3.98778094698	0.21336315435
8	7903	3.99349230337	0.20970736663
8	7948	4.01365551203	0.21936099904
8	7970	4.02707426251	0.23070189298
8	7996	4.03973887316	0.24097201308
8	8008	4.04465412367	0.19941450416
8	8012	4.04858119655	0.19835126644
8	8031	4.05941678005	0.18
8	8037	4.06376375667	0.18
8	8040	4.06511279852	0.18
8	8055	4.07051736448	0.18
8	8059	4.07438298451	0.18350976195
8	8067	4.07955936141	0.18347987335
8	8096	4.09683724387	0.19990613433
8	8115	4.1089443024	0.1832185278
8	8126	4.11683777806	0.18203508094
8	8143	4.12956118934	0.18873290549
8	8163	4.14395599191	0.20109428367
8	8180	4.15552960144	0.20232007819
8	8188	4.1597864496	0.18431452607
8	8219	4.18	0.18
8	8225	4.18583190497	0.18
8	8250	4.20420568718	0.18395665394
8	8257	4.209201773	0.18045277098
8	8268	4.2186759205	0.18
8	8303	4.24429998317	0.18
8	8368	4.2860891245	0.18
8	8373	4.28917273025	0.18
8	8412	4.31474268456	0.18
8	8416	4.31812316458	0.18
8	8444	4.34240052603	0.18
8	8452	4.34398869909	0.18
8	8459	4.35004023731	0.18
8	8507	4.3818530397	0.18
8	8515	4.38553083024	0.18
8	8531	4.39227380928	0.18
8	8540	4.40305217597	0.18
8	8563	4.41762196684	0.194202171
8	8582	4.43053543455	0.19205352728
8	8587	4.43340557164	0.19002672661
8	8594	4.44027838206	0.19085978547
8	8666	4.48586861727	0.22995876111
8	8668	4.48602239013	0.22654017969
8	8672	4.49272176884	0.23114164689
8	8674	4.4928254173	0.22900442502
8	8693	4.50301877984	0.22513275843
8	8697	4.50593897059	0.18
8	8739	4.53298116638	0.18
8	8764	4.54145417077	0.18
8	8787	4.56503987846	0.18951024822
8	8796	4.56839006983	0.19049130188
8	8828	4.58907903771	0.18
8	8853	4.60105908844	0.18733893079
8	8892	4.6288891151	0.20406881403
8	8949	4.66385754337	0.2139067338
8	8984	4.68645272901	0.22012918688
8	8996	4.69067601867	0.22173313041
8	9026	4.70624356	0.22747871917
8	9043	4.71828781333	0.22750849122
8	9050	4.71985233528	0.22149795316
8	9098	4.74749134761	0.24393930166
8	9102	4.74869808118	0.2421250389
8	9105	4.74937099631	0.22317192497
8	9140	4.76584366689	0.22629969608
8	9173	4.78337835018	0.21559711555
8	9194	4.79343244961	0.21675826615
8	9198	4.7954756163	0.20082982617
8	9207	4.80066297882	0.19501924933
8	9210	4.80186873451	0.18166380405
8	9300	4.84717561009	0.18
8	9309	4.85043361669	0.18
8	9341	4.86888448935	0.18
8	9372	4.8808865999	0.18
8	9393	4.89262210803	0.18
8	9453	4.91889512764	0.18
8	9459	4.9228364259	0.18
8	9489	4.93216519863	0.18
8	9493	4.9351658075	0.18
8	9497	4.93843020201	0.18
8	9557	4.96618040568	0.18
8	9579	4.97685106624	0.18
8	9604	4.98961983166	0.18
8	9619	4.99874590181	0.18
8	9640	5.00262625133	0.18
8	9692	5.03218883597	0.18
8	9758	5.06517227722	0.18
8	9765	5.06748591253	0.18
8	9771	5.07272070826	0.18
8	9777	5.07422876168	0.18
8	9781	5.07476929796	0.18
8	9783	5.07497007906	0.18
8	9836	5.10277084213	0.18
8	9841	5.10441454665	0.18
8	9850	5.10727558487	0.18
8	9900	5.1352890671	0.18
8	9942	5.15741775279	0.18
8	9963	5.16761770031	0.18
8	9987	5.18	0.18
8	10021	5.19535347956	0.18
8	10042	5.20567001766	0.18
8	10068	5.21621228191	0.18
8	10110	5.2371186308	0.18
8	10113	5.2384201686	0.18
8	10145	5.25667547817	0.18
8	10149	5.25773633083	0.18
8	10153	5.25888254356	0.18
8	10163	5.26659905909	0.18
8	10181	5.27717389052	0.18
8	10238	5.31036599615	0.18
8	10255	5.31807293769	0.18
8	10297	5.3411549935	0.18
8	10343	5.36080696211	0.18
8	10390	5.38374390023	0.18
8	10399	5.38572290693	0.18
8	10413	5.3905898058	0.18
8	10421	5.39310799702	0.18
8	10452	5.4088602735	0.18
8	10456	5.41028716354	0.18
8	10497	5.42527161209	0.18
8	10531	5.44033048904	0.18
8	10560	5.45339111697	0.18
8	10567	5.45750758246	0.18
8	10603	5.47062764457	0.18
8	10616	5.4774579956	0.18
8	10622	5.47893910479	0.18
8	10626	5.47967840013	0.18
8	10649	5.49325275413	0.18
8	10685	5.50309621926	0.18
8	10693	5.50746339648	0.18
8	10703	5.51149271382	0.18
8	10707	5.51369068671	0.18
8	10722	5.52515994446	0.18
8	10728	5.52752555933	0.18
8	10743	5.5311693977	0.18
8	10760	5.53789839685	0.18
8	10770	5.54435213272	0.18
8	10774	5.54503346575	0.18
8	10806	5.56465741503	0.18
8	10811	5.56715338945	0.18
8	10813	5.56760892323	0.18
8	10831	5.58247324106	0.18
8	10852	5.58998182972	0.18
8	10907	5.62018685434	0.18
8	10935	5.64511094806	0.18
8	10952	5.64899179743	0.18
8	10957	5.64988341861	0.18
8	10973	5.6641930231	0.18
8	10999	5.67869790916	0.18
8	11004	5.67948784241	0.18
8	11034	5.69901648623	0.18
8	11080	5.7248473488	0.18
8	11142	5.7600908024	0.18
8	11158	5.76614702901	0.18
8	11162	5.76664646091	0.18
8	11171	5.76966591924	0.18
8	11185	5.78323653646	0.18
8	11196	5.78824191461	0.18
8	11198	5.78945159952	0.18
8	11209	5.79259718367	0.18
8	11241	5.8113143326	0.18
8	11249	5.81407609471	0.18
8	11259	5.82200219004	0.18
8	11354	5.87540629862	0.18
8	11358	5.87611973687	0.18
8	11366	5.88228651068	0.18
8	11377	5.88690091189	0.18
8	11395	5.89990619068	0.18
8	11457	5.93588931167	0.18
8	11465	5.94259137149	0.18
8	11468	5.94397247028	0.18
8	11519	5.97435174722	0.18
8	11540	5.98794772165	0.18
8	11582	6.00879568285	0.18
8	11616	6.02604260519	0.18
8	11619	6.02774618083	0.18
8	11667	6.05399129429	0.18
8	11702	6.0701009546	0.18
8	11739	6.08486827019	0.18
8	11741	6.08514215946	0.18
8	11753	6.09263088219	0.18
8	11773	6.10183666487	0.18
8	11782	6.10633137992	0.18
8	11786	6.10726936997	0.18
8	11856	6.13826699254	0.18
8	11863	6.14239857977	0.18
8	11867	6.14319593031	0.18
8	11871	6.14338671236	0.18
8	11876	6.14532203333	0.18
8	11880	6.14894857893	0.18
8	11882	6.14901413427	0.18
8	11923	6.16573238973	0.18
8	11952	6.18	0.18
8	11956	6.18090641787	0.18
8	11979	6.19022079118	0.18
8	11985	6.19395964484	0.18
8	11992	6.19677855696	0.18
8	12001	6.20323863952	0.18
8	12062	6.23971530779	0.18
8	12104	6.26267749342	0.18
8	12115	6.27140317883	0.18
8	12125	6.27412375384	0.18
8	12129	6.27557482444	0.18
8	12156	6.29070674033	0.18
8	12158	6.29104476946	0.18
8	12182	6.3036330982	0.18
8	12210	6.31219817719	0.18
8	12227	6.32430037136	0.18
8	12249	6.33512653617	0.18
8	12261	6.33800583874	0.18
8	12289	6.35429226571	0.18
8	12327	6.36724566118	0.18
8	12351	6.37783163513	0.18
8	12367	6.38823421621	0.18
8	12378	6.39189266167	0.18
8	12392	6.39631788583	0.18
8	12411	6.40142201319	0.18
8	12464	6.4243068263	0.18
8	12525	6.45064892851	0.18
8	12544	6.45660052095	0.18
8	12569	6.46471131057	0.18
8	12572	6.46528403196	0.18
8	12583	6.47285585757	0.18
8	12594	6.47736362243	0.18
8	12621	6.4831490112	0.18
8	12627	6.48719877416	0.18
8	12629	6.48720928858	0.18
8	12645	6.49111318357	0.18
8	12648	6.49146701349	0.18
8	12719	6.51810995842	0.18
8	12722	6.51852956731	0.18
8	12724	6.51954322974	0.18
8	12787	6.5431279224	0.18
8	12829	6.55963532405	0.18
8	12837	6.56306419012	0.18
8	12840	6.56403491909	0.18
8	12849	6.56850011359	0.18
8	12885	6.5801863698	0.18
8	12916	6.59574490278	0.18
8	12929	6.60056544267	0.18
8	12932	6.60128700019	0.18
8	12935	6.6019330766	0.18
8	12937	6.60213257318	0.18
8	12939	6.60290560754	0.18
8	12991	6.6298113452	0.18
8	13002	6.63453095693	0.18
8	13012	6.63993452535	0.18
8	13015	6.64061924869	0.18
8	13022	6.64363292791	0.18
8	13043	6.651328231	0.18
8	13045	6.65139664767	0.18
8	13050	6.65363496405	0.18
8	13057	6.6563628698	0.18
8	13090	6.67389407798	0.18
8	13094	6.67575477232	0.18
8	13099	6.67686532513	0.18
8	13119	6.68511189453	0.18
8	13134	6.69135169099	0.18
8	13142	6.69725023691	0.18
8	13149	6.69847568388	0.18
8	13173	6.71024491366	0.18
8	13196	6.72072318306	0.18
8	13203	6.72577851432	0.18
8	13215	6.73266167233	0.18
8	13217	6.73276794084	0.18
8	13224	6.73701939356	0.18
8	13245	6.74853615694	0.18
8	13249	6.75031073147	0.18
8	13325	6.80338211798	0.18
8	13343	6.81468547739	0.18
8	13355	6.82015974784	0.18
8	13359	6.82598770148	0.18
8	13362	6.82656795778	0.18
8	13380	6.83392515708	0.18
8	13391	6.83987682639	0.18
8	13402	6.84596567507	0.18
8	13407	6.84914036316	0.18
8	13448	6.87236468678	0.18
8	13507	6.9175719519	0.18
8	13516	6.92236547606	0.18
8	13596	6.97898637116	0.18
8	13613	6.99151653473	0.18
8	13615	6.99223359354	0.18
8	13628	6.99807353807	0.18
8	13650	7.00843531082	0.18
8	13660	7.01388252693	0.18
8	13665	7.01578041528	0.18
8	13720	7.04140301106	0.18
8	13755	7.06129101339	0.18
8	13757	7.06223409682	0.18
8	13780	7.07091431622	0.18
8	13792	7.07615328454	0.18
8	13833	7.09756174637	0.18
8	13837	7.09826514261	0.18
8	13868	7.11286830638	0.18
8	13899	7.12560129729	0.18
8	13911	7.12926501684	0.18
8	13977	7.15608343928	0.18
8	13996	7.16459120696	0.18
8	14002	7.16832473275	0.18
8	14010	7.17421604408	0.18
8	14016	7.17459986428	0.18
8	14020	7.17473400862	0.18
8	14039	7.18	0.18
8	14055	7.18427515706	0.18
8	14095	7.20431127275	0.18
8	14100	7.20462774943	0.18
8	14106	7.20604173529	0.18
8	14123	7.21012244158	0.18
8	14140	7.21798800851	0.18
8	14148	7.220407611	0.18
8	14150	7.22044795379	0.18
8	14152	7.22228565943	0.18
8	14191	7.23695643683	0.18
8	14194	7.23718887454	0.18
8	14231	7.2571045661	0.18791679025
8	14247	7.26551653245	0.19549488794
8	14276	7.27877744409	0.20801164799
8	14315	7.29633027845	0.21899500406
8	14321	7.29762349475	0.20937914474
8	14377	7.32612537082	0.22704134701
8	14382	7.32669507811	0.22737676868
8	14389	7.33	0.21335521318
8	14396	7.33359991321	0.2134557453
8	14412	7.34034580815	0.20694911006
8	14420	7.34455373948	0.20490281622
8	14442	7.3543655842	0.20721284782
8	14460	7.3624345192	0.2008758405
8	14466	7.36423235857	0.19605664509
8	14472	7.36789348137	0.18718785954
8	14483	7.37263000799	0.19067878287
8	14508	7.38252865878	0.19992007068
8	14552	7.40306394512	0.21346752447
8	14557	7.40616379582	0.20507460189
8	14571	7.41116073449	0.20860829921
8	14579	7.41415347936	0.20258825653
8	14628	7.43904008587	0.21916178706
8	14651	7.45098154078	0.21387204896
8	14673	7.45870034558	0.199004033
8	14730	7.48750900418	0.18
8	14768	7.50153430737	0.18
8	14777	7.50739754415	0.18
8	14787	7.51237048299	0.18
8	14802	7.51804710342	0.18
8	14817	7.52632574235	0.18
8	14839	7.53866934232	0.19139444237
8	14854	7.54682678292	0.18378915817
8	14882	7.55980517521	0.19145169935
8	14891	7.56406880219	0.19529445631
8	14902	7.569652832	0.19198322267
8	14923	7.57834902228	0.19853259041
8	14936	7.58683632304	0.20259454466
8	14953	7.594369227	0.20366060611
8	14974	7.60380164245	0.20720995805
8	14976	7.60398710728	0.20661658619
8	14993	7.61064820132	0.20180076672
8	15003	7.61761306227	0.18
8	15021	7.62544291251	0.18
8	15036	7.6328761099	0.18
8	15046	7.63742118842	0.18
8	15054	7.63983977157	0.18
8	15070	7.64945144106	0.18792596348
8	15088	7.65902891373	0.18
8	15108	7.66793327003	0.18478829066
8	15117	7.67177954581	0.18106856266
8	15155	7.69200338221	0.19845681689
8	15218	7.7281206412	0.20669578773
8	15221	7.72928670349	0.20260568194
8	15240	7.74127195225	0.19219932747
8	15262	7.75350740158	0.19088370073
8	15321	7.7869445934	0.22409555663
8	15327	7.79146968103	0.21850533982
8	15352	7.80171898994	0.21443814763
8	15354	7.80447843651	0.21289520514
8	15388	7.82293281636	0.22339351567
8	15390	7.82370134497	0.22260233933
8	15406	7.83144707576	0.22350924045
8	15423	7.84115071186	0.2224562982
8	15425	7.8416816077	0.22112854928
8	15457	7.86123122923	0.23834127091
8	15468	7.86853627652	0.23949920242
8	15470	7.86944347582	0.21601808216
8	15509	7.89579409912	0.22962265862
8	15519	7.90029229613	0.22613058443
8	15535	7.91167320902	0.23215257219
8	15552	7.91957075288	0.23923260232
8	15574	7.93476883963	0.23919953977
8	15582	7.93911172736	0.23402331491
8	15620	7.96176548684	0.25522648736
8	15628	7.96633370043	0.25005505628
8	15645	7.97404867577	0.25658652888
8	15651	7.9790218385	0.24157009817
8	15665	7.98808719962	0.24307282752
8	15698	8.00656369662	0.26040914441
8	15719	8.02063868949	0.26148876476
8	15742	8.03650417009	0.27079948516
8	15798	8.07101243078	0.30475471454
8	15840	8.09213535311	0.31606647881
8	15843	8.09289611827	0.28453976776
8	15859	8.10636832545	0.28411367741
8	15873	8.11427979463	0.28875326402
8	15881	8.11763159898	0.28857437972
8	15904	8.12916138158	0.276105484
8	15914	8.13745464542	0.27718924849
8	15929	8.14567610998	0.27894480111
8	16026	8.19392502906	0.30763955526
8	16059	8.20740933091	0.3076136111
8	16081	8.21671339395	0.30348627925
8	16089	8.22137866923	0.30766623137
8	16091	8.22193391904	0.30241369826
8	16108	8.22972886021	0.30078432396
8	16128	8.23958893754	0.30554614441
8	16134	8.24144706813	0.30025292039
8	16193	8.27211341221	0.30471403203
8	16240	8.29926287669	0.31935336627
8	16245	8.30026117509	0.30026117509
8	16290	8.31787140817	0.28985080496
8	16302	8.32283541437	0.29073740444
8	16315	8.33	0.29197240878
8	16330	8.33514101901	0.27866453774
8	16349	8.34358017295	0.26209291067
8	16357	8.34768884782	0.25642138691
8	16363	8.3492382027	0.22117596141
8	16379	8.35604059631	0.21293045575
8	16389	8.36119716098	0.20299545712
8	16426	8.37780754691	0.21071101238
8	16436	8.38257856747	0.21392532054
8	16440	8.38539975279	0.21073193757
8	16513	8.42277284506	0.24682262377
8	16537	8.43104710083	0.25320699537
8	16544	8.43398067487	0.25305590463
8	16551	8.43981557613	0.24976701282
8	16559	8.44607957798	0.24868597246
8	16577	8.45392039844	0.25095393102
8	16585	8.45566179251	0.2303762269
8	16605	8.46380929433	0.23392270057
8	16639	8.4828728983	0.22112346352
8	16660	8.48886527938	0.21626048858
8	16687	8.50088724495	0.22359198037
8	16690	8.50133552443	0.21974427411
8	16699	8.50607436429	0.22000056467
8	16743	8.52506907486	0.2181541747
8	16778	8.54205944669	0.22918077264
8	16793	8.54860594705	0.22802727286
8	16798	8.5498780833	0.20635940058
8	16801	8.55101234798	0.20303130556
8	16835	8.56760921311	0.2168725761
8	16863	8.58109207876	0.18
8	16891	8.59743566183	0.19619845687
8	16901	8.60227327691	0.18603120363
8	16965	8.63314194694	0.19876512899
8	16969	8.63491027647	0.19593308957
8	16975	8.63562869661	0.18529147453
8	16984	8.63981614966	0.18
8	16999	8.64592820353	0.18
8	17023	8.65415393313	0.18
8	17043	8.66506307979	0.18337536807
8	17057	8.6742969104	0.18
8	17066	8.67568118775	0.18
8	17075	8.67759779333	0.18035380461
8	17116	8.69440789549	0.18
8	17128	8.7005725258	0.18
8	17153	8.70879849422	0.18
8	17193	8.72505264411	0.19473811262
8	17215	8.73587903986	0.19014546441
8	17270	8.75801224439	0.21031981857
8	17306	8.77089102231	0.20522768692
8	17347	8.78963062264	0.22298243544
8	17377	8.79974427014	0.22958344068
8	17379	8.80028972483	0.22992505997
8	17392	8.8042571809	0.22181977361
8	17407	8.81016844851	0.21099322116
8	17460	8.83169777664	0.22217242737
8	17484	8.83967428783	0.22435054267
8	17489	8.84048629704	0.20204301609
8	17518	8.85555065829	0.21327701353
8	17523	8.85660288886	0.20735483588
8	17552	8.86575317572	0.2163306142
8	17556	8.86787335771	0.18619697946
8	17597	8.88628351616	0.20156776356
8	17605	8.88744988067	0.19429028029
8	17610	8.88907778284	0.19443799636
8	17621	8.89404993788	0.19761986105
8	17670	8.91527786102	0.20798794674
8	17684	8.92090327895	0.20926223317
8	17715	8.93510323149	0.21323731788
8	17722	8.93784446385	0.21106556112
8	17739	8.94471650902	0.20948899831
8	17768	8.95504843939	0.21965442065
8	17774	8.95961809099	0.19882061407
8	17782	8.96444336811	0.19557701835
8	17803	8.97438466716	0.20504087167
8	17806	8.97478360085	0.18810436308
8	17815	8.97739885382	0.18028929355
8	17830	8.98185618453	0.18
8	17880	9.00665023069	0.18
8	17896	9.01034400131	0.18
8	17912	9.02076552709	0.18
8	17916	9.02270761409	0.18
8	17923	9.02779340593	0.18
8	17937	9.03315797262	0.18
8	17963	9.04455172212	0.18
8	17989	9.05968179032	0.18
8	18005	9.06671592313	0.18
8	18032	9.07980183379	0.18
8	18052	9.09208191549	0.18