file 169057 1542764323                                          
version 2
run simpleNet-0-20181120-20:38:40-14836
attr configname simpleNet
attr datetime 20181120-20:38:40
attr experiment simpleNet
attr inifile omnetpp.ini
attr iterationvars ""
attr iterationvarsf ""
attr measurement ""
attr network simpleNet
attr processid 14836
attr repetition 0
attr replication #0
attr resultdir results
attr runnumber 0
attr seedset 0

vector 0 simpleNet.node[0] "numAttemptedPerDest_Total(dest node 4):vector" ETV
0	4412 7918 1 14340 0 9.98 500 1 500 125250 41791750
vector 1 simpleNet.node[0] "numAttemptedPerDest_Total(dest node 1):vector" ETV
1	12330 7918 2 14341 0 9.98 500 1 500 125250 41791750
vector 2 simpleNet.node[0] "numInQueuePerChannel(node 1):vector" ETV
2	20248 302 3 14406 0 10.5 22 0 400 3816 1101016
vector 3 simpleNet.node[0] "numInQueuePerChannel(node 3):vector" ETV
3	20550 271 3 14406 0 10.5 22 0 0 0 0
vector 4 simpleNet.node[0] "numInQueuePerChannel(node 4):vector" ETV
4	20821 302 3 14406 0 10.5 22 0 400 3816 1101016
vector 5 simpleNet.node[0] "numProcessedPerChannel(node 0):vector" ETV
5	21123 271 3 14406 0 10.5 22 0 0 0 0
vector 6 simpleNet.node[0] "numProcessedPerChannel(node 1):vector" ETV
6	21394 275 3 14406 0 10.5 22 0 25 100 2368
vector 7 simpleNet.node[0] "numProcessedPerChannel(node 2):vector" ETV
7	21669 271 3 14406 0 10.5 22 0 0 0 0
vector 8 simpleNet.node[0] "numProcessedPerChannel(node 3):vector" ETV
8	21940 273 3 14406 0 10.5 22 0 50 100 4262
vector 9 simpleNet.node[0] "numProcessedPerChannel(node 4):vector" ETV
9	22213 275 3 14406 0 10.5 22 0 25 100 2368
vector 10 simpleNet.node[1] "numAttemptedPerDest_Total(dest node 3):vector" ETV
10	22488 17067 4 14354 0 9.99 1000 1 1000 500500 333833500
vector 11 simpleNet.node[1] "numInQueuePerChannel(node 0):vector" ETV
11	39555 293 5 14407 0 10.5 22 0 0 0 0
vector 12 simpleNet.node[1] "numInQueuePerChannel(node 2):vector" ETV
12	39848 293 5 14407 0 10.5 22 0 0 0 0
vector 13 simpleNet.node[1] "numInQueuePerChannel(node 3):vector" ETV
13	40141 330 5 14407 0 10.5 22 0 900 9468 6097818
vector 14 simpleNet.node[1] "numProcessedPerChannel(node 0):vector" ETV
14	40471 297 5 14407 0 10.5 22 0 25 100 2332
vector 15 simpleNet.node[1] "numProcessedPerChannel(node 1):vector" ETV
15	40768 293 5 14407 0 10.5 22 0 0 0 0
vector 16 simpleNet.node[1] "numProcessedPerChannel(node 2):vector" ETV
16	41061 297 5 14407 0 10.5 22 0 25 100 2332
vector 17 simpleNet.node[1] "numProcessedPerChannel(node 3):vector" ETV
17	41358 295 5 14407 0 10.5 22 0 50 100 4472
vector 18 simpleNet.node[1] "numProcessedPerChannel(node 4):vector" ETV
18	41653 293 5 14407 0 10.5 22 0 0 0 0
vector 19 simpleNet.node[2] "numAttemptedPerDest_Total(dest node 1):vector" ETV
19	41946 8418 6 14343 0 9.98 500 1 500 125250 41791750
vector 20 simpleNet.node[2] "numAttemptedPerDest_Total(dest node 4):vector" ETV
20	50364 17068 7 14355 0 9.99 1000 1 1000 500500 333833500
vector 21 simpleNet.node[2] "numInQueuePerChannel(node 1):vector" ETV
21	67432 324 8 14408 0 10.5 22 0 400 3816 1101016
vector 22 simpleNet.node[2] "numInQueuePerChannel(node 3):vector" ETV
22	67756 293 8 14408 0 10.5 22 0 0 0 0
vector 23 simpleNet.node[2] "numInQueuePerChannel(node 4):vector" ETV
23	68049 293 8 14408 0 10.5 22 0 0 0 0
vector 24 simpleNet.node[2] "numProcessedPerChannel(node 0):vector" ETV
24	68342 293 8 14408 0 10.5 22 0 0 0 0
vector 25 simpleNet.node[2] "numProcessedPerChannel(node 1):vector" ETV
25	68635 297 8 14408 0 10.5 22 0 25 100 2368
vector 26 simpleNet.node[2] "numProcessedPerChannel(node 2):vector" ETV
26	68932 293 8 14408 0 10.5 22 0 0 0 0
vector 27 simpleNet.node[2] "numProcessedPerChannel(node 3):vector" ETV
27	69225 295 8 14408 0 10.5 22 0 50 100 4262
vector 28 simpleNet.node[2] "numProcessedPerChannel(node 4):vector" ETV
28	69520 333 8 14408 0 10.5 22 0 100 2000 197450
vector 29 simpleNet.node[3] "numAttemptedPerDest_Total(dest node 0):vector" ETV
29	69853 17068 9 14356 0 9.99 1000 1 1000 500500 333833500
vector 30 simpleNet.node[3] "numAttemptedPerDest_Total(dest node 2):vector" ETV
30	86921 17069 10 14357 0 9.99 1000 1 1000 500500 333833500
vector 31 simpleNet.node[3] "numInQueuePerChannel(node 0):vector" ETV
31	103990 331 11 14409 0 10.5 22 0 900 9468 6097818
vector 32 simpleNet.node[3] "numInQueuePerChannel(node 1):vector" ETV
32	104321 294 11 14409 0 10.5 22 0 0 0 0
vector 33 simpleNet.node[3] "numInQueuePerChannel(node 2):vector" ETV
33	104615 331 11 14409 0 10.5 22 0 900 9468 6097818
vector 34 simpleNet.node[3] "numProcessedPerChannel(node 0):vector" ETV
34	104946 296 11 14409 0 10.5 22 0 50 100 4472
vector 35 simpleNet.node[3] "numProcessedPerChannel(node 1):vector" ETV
35	105242 296 11 14409 0 10.5 22 0 50 100 4262
vector 36 simpleNet.node[3] "numProcessedPerChannel(node 2):vector" ETV
36	105538 296 11 14409 0 10.5 22 0 50 100 4472
vector 37 simpleNet.node[3] "numProcessedPerChannel(node 3):vector" ETV
37	105834 294 11 14409 0 10.5 22 0 0 0 0
vector 38 simpleNet.node[3] "numProcessedPerChannel(node 4):vector" ETV
38	106128 294 11 14409 0 10.5 22 0 0 0 0
vector 39 simpleNet.node[4] "numAttemptedPerDest_Total(dest node 2):vector" ETV
39	106422 17069 12 14358 0 9.99 1000 1 1000 500500 333833500
vector 40 simpleNet.node[4] "numInQueuePerChannel(node 0):vector" ETV
40	123491 294 13 14410 0 10.5 22 0 0 0 0
vector 41 simpleNet.node[4] "numInQueuePerChannel(node 2):vector" ETV
41	123785 294 13 14410 0 10.5 22 0 0 0 0
vector 42 simpleNet.node[4] "numProcessedPerChannel(node 0):vector" ETV
42	124079 298 13 14410 0 10.5 22 0 25 100 2332
vector 43 simpleNet.node[4] "numProcessedPerChannel(node 1):vector" ETV
43	124377 294 13 14410 0 10.5 22 0 0 0 0
vector 44 simpleNet.node[4] "numProcessedPerChannel(node 2):vector" ETV
44	124671 334 13 14410 0 10.5 22 0 100 2000 197450
vector 45 simpleNet.node[4] "numProcessedPerChannel(node 3):vector" ETV
45	125005 294 13 14410 0 10.5 22 0 0 0 0
vector 46 simpleNet.node[4] "numProcessedPerChannel(node 4):vector" ETV
46	125299 294 13 14410 0 10.5 22 0 0 0 0
vector 47 simpleNet.node[0] "numCompletedPerDest_Total(dest node 4):vector" ETV
47	125593 1548 79 4341 0.06 2.04 100 1 100 5050 338350
vector 48 simpleNet.node[0] "numCompletedPerDest_Total(dest node 1):vector" ETV
48	127141 1548 80 4342 0.06 2.04 100 1 100 5050 338350
vector 49 simpleNet.node[1] "numCompletedPerDest_Total(dest node 3):vector" ETV
49	128689 1542 81 2636 0.06 1.05 100 1 100 5050 338350
vector 50 simpleNet.node[2] "numCompletedPerDest_Total(dest node 1):vector" ETV
50	130231 1549 82 4343 0.06 2.04 100 1 100 5050 338350
vector 51 simpleNet.node[2] "numCompletedPerDest_Total(dest node 4):vector" ETV
51	131780 17095 83 14396 0.06 10.05 1000 1 1000 500500 333833500
vector 52 simpleNet.node[3] "numCompletedPerDest_Total(dest node 0):vector" ETV
52	148875 1543 84 2638 0.06 1.05 100 1 100 5050 338350
vector 53 simpleNet.node[3] "numCompletedPerDest_Total(dest node 2):vector" ETV
53	150418 1543 85 2639 0.06 1.05 100 1 100 5050 338350
vector 54 simpleNet.node[4] "numCompletedPerDest_Total(dest node 2):vector" ETV
54	151961 17096 86 14397 0.06 10.05 1000 1 1000 500500 333833500
