version 2
run simpleNet-0-20181120-14:11:16-7896
attr configname simpleNet
attr datetime 20181120-14:11:16
attr experiment simpleNet
attr inifile omnetpp.ini
attr iterationvars ""
attr iterationvarsf ""
attr measurement ""
attr network simpleNet
attr processid 7896
attr repetition 0
attr replication #0
attr resultdir results
attr runnumber 0
attr seedset 0

vector 0 simpleNet.node[0] "numInQueuePerChannelSignal(dest node 1):vector" ETV
vector 1 simpleNet.node[0] "numInQueuePerChannelSignal(dest node 3):vector" ETV
vector 2 simpleNet.node[0] "numInQueuePerChannelSignal(dest node 4):vector" ETV
vector 3 simpleNet.node[0] numInQueue:vector ETV
attr interpolationmode none
attr source numInQueue
attr title "total num in queue, vector"
vector 4 simpleNet.node[0] numProcessed:vector ETV
attr interpolationmode none
attr source numProcessed
attr title "num processing events in statRate time, vector"
vector 5 simpleNet.node[1] "numInQueuePerChannelSignal(dest node 0):vector" ETV
vector 6 simpleNet.node[1] "numInQueuePerChannelSignal(dest node 2):vector" ETV
vector 7 simpleNet.node[1] "numInQueuePerChannelSignal(dest node 3):vector" ETV
vector 8 simpleNet.node[1] numInQueue:vector ETV
attr interpolationmode none
attr source numInQueue
attr title "total num in queue, vector"
vector 9 simpleNet.node[1] numProcessed:vector ETV
attr interpolationmode none
attr source numProcessed
attr title "num processing events in statRate time, vector"
vector 10 simpleNet.node[2] "numInQueuePerChannelSignal(dest node 1):vector" ETV
vector 11 simpleNet.node[2] "numInQueuePerChannelSignal(dest node 3):vector" ETV
vector 12 simpleNet.node[2] "numInQueuePerChannelSignal(dest node 4):vector" ETV
vector 13 simpleNet.node[2] numInQueue:vector ETV
attr interpolationmode none
attr source numInQueue
attr title "total num in queue, vector"
vector 14 simpleNet.node[2] numProcessed:vector ETV
attr interpolationmode none
attr source numProcessed
attr title "num processing events in statRate time, vector"
vector 15 simpleNet.node[3] "numInQueuePerChannelSignal(dest node 0):vector" ETV
vector 16 simpleNet.node[3] "numInQueuePerChannelSignal(dest node 1):vector" ETV
vector 17 simpleNet.node[3] "numInQueuePerChannelSignal(dest node 2):vector" ETV
vector 18 simpleNet.node[3] numInQueue:vector ETV
attr interpolationmode none
attr source numInQueue
attr title "total num in queue, vector"
vector 19 simpleNet.node[3] numProcessed:vector ETV
attr interpolationmode none
attr source numProcessed
attr title "num processing events in statRate time, vector"
vector 20 simpleNet.node[4] "numInQueuePerChannelSignal(dest node 0):vector" ETV
vector 21 simpleNet.node[4] "numInQueuePerChannelSignal(dest node 2):vector" ETV
vector 22 simpleNet.node[4] numInQueue:vector ETV
attr interpolationmode none
attr source numInQueue
attr title "total num in queue, vector"
vector 23 simpleNet.node[4] numProcessed:vector ETV
attr interpolationmode none
attr source numProcessed
attr title "num processing events in statRate time, vector"
vector 24 simpleNet.node[0] completionTime:vector ETV
attr interpolationmode none
attr source completionTime
attr title "completionTime, vector"
vector 25 simpleNet.node[1] completionTime:vector ETV
attr interpolationmode none
attr source completionTime
attr title "completionTime, vector"
vector 26 simpleNet.node[2] completionTime:vector ETV
attr interpolationmode none
attr source completionTime
attr title "completionTime, vector"
vector 27 simpleNet.node[3] completionTime:vector ETV
attr interpolationmode none
attr source completionTime
attr title "completionTime, vector"
vector 28 simpleNet.node[4] completionTime:vector ETV
attr interpolationmode none
attr source completionTime
attr title "completionTime, vector"
0	3	0	0
0	43	0.5	0
0	71	1	0
0	105	1.5	0
0	133	2	0
0	167	2.5	0
0	195	3	0
0	229	3.5	0
0	257	4	0
0	291	4.5	0
0	319	5	0
0	353	5.5	0
0	381	6	0
0	415	6.5	0
0	443	7	0
0	477	7.5	0
0	505	8	0
0	539	8.5	0
0	567	9	0
0	601	9.5	0
0	621	10	0
0	626	10.5	0
1	3	0	0
1	43	0.5	0
1	71	1	0
1	105	1.5	0
1	133	2	0
1	167	2.5	0
1	195	3	0
1	229	3.5	0
1	257	4	0
1	291	4.5	0
1	319	5	0
1	353	5.5	0
1	381	6	0
1	415	6.5	0
1	443	7	0
1	477	7.5	0
1	505	8	0
1	539	8.5	0
1	567	9	0
1	601	9.5	0
1	621	10	0
1	626	10.5	0
2	3	0	0
2	43	0.5	0
2	71	1	0
2	105	1.5	0
2	133	2	0
2	167	2.5	0
2	195	3	0
2	229	3.5	0
2	257	4	0
2	291	4.5	0
2	319	5	0
2	353	5.5	0
2	381	6	0
2	415	6.5	0
2	443	7	0
2	477	7.5	0
2	505	8	0
2	539	8.5	0
2	567	9	0
2	601	9.5	0
2	621	10	0
2	626	10.5	0
3	3	0	0
3	43	0.5	0
3	71	1	0
3	105	1.5	0
3	133	2	0
3	167	2.5	0
3	195	3	0
3	229	3.5	0
3	257	4	0
3	291	4.5	0
3	319	5	0
3	353	5.5	0
3	381	6	0
3	415	6.5	0
3	443	7	0
3	477	7.5	0
3	505	8	0
3	539	8.5	0
3	567	9	0
3	601	9.5	0
3	621	10	0
3	626	10.5	0
4	3	0	0
4	43	0.5	3
4	71	1	1
4	105	1.5	3
4	133	2	1
4	167	2.5	3
4	195	3	1
4	229	3.5	3
4	257	4	1
4	291	4.5	3
4	319	5	1
4	353	5.5	3
4	381	6	1
4	415	6.5	3
4	443	7	1
4	477	7.5	3
4	505	8	1
4	539	8.5	3
4	567	9	1
4	601	9.5	3
4	621	10	1
4	626	10.5	0
5	5	0	0
5	44	0.5	0
5	72	1	0
5	106	1.5	0
5	134	2	0
5	168	2.5	0
5	196	3	0
5	230	3.5	0
5	258	4	0
5	292	4.5	0
5	320	5	0
5	354	5.5	0
5	382	6	0
5	416	6.5	0
5	444	7	0
5	478	7.5	0
5	506	8	0
5	540	8.5	0
5	568	9	0
5	602	9.5	0
5	622	10	0
5	627	10.5	0
6	5	0	0
6	44	0.5	0
6	72	1	0
6	106	1.5	0
6	134	2	0
6	168	2.5	0
6	196	3	0
6	230	3.5	0
6	258	4	0
6	292	4.5	0
6	320	5	0
6	354	5.5	0
6	382	6	0
6	416	6.5	0
6	444	7	0
6	478	7.5	0
6	506	8	0
6	540	8.5	0
6	568	9	0
6	602	9.5	0
6	622	10	0
6	627	10.5	0
7	5	0	0
7	44	0.5	0
7	72	1	0
7	106	1.5	0
7	134	2	0
7	168	2.5	0
7	196	3	0
7	230	3.5	0
7	258	4	0
7	292	4.5	0
7	320	5	0
7	354	5.5	0
7	382	6	0
7	416	6.5	0
7	444	7	0
7	478	7.5	0
7	506	8	0
7	540	8.5	0
7	568	9	0
7	602	9.5	0
7	622	10	0
7	627	10.5	0
8	5	0	0
8	44	0.5	0
8	72	1	0
8	106	1.5	0
8	134	2	0
8	168	2.5	0
8	196	3	0
8	230	3.5	0
8	258	4	0
8	292	4.5	0
8	320	5	0
8	354	5.5	0
8	382	6	0
8	416	6.5	0
8	444	7	0
8	478	7.5	0
8	506	8	0
8	540	8.5	0
8	568	9	0
8	602	9.5	0
8	622	10	0
8	627	10.5	0
9	5	0	0
9	44	0.5	3
9	72	1	1
9	106	1.5	3
9	134	2	1
9	168	2.5	3
9	196	3	1
9	230	3.5	3
9	258	4	1
9	292	4.5	3
9	320	5	1
9	354	5.5	3
9	382	6	1
9	416	6.5	3
9	444	7	1
9	478	7.5	3
9	506	8	1
9	540	8.5	3
9	568	9	1
9	602	9.5	3
9	622	10	1
9	627	10.5	0
10	8	0	0
10	45	0.5	0
10	73	1	0
10	107	1.5	0
10	135	2	0
10	169	2.5	0
10	197	3	0
10	231	3.5	0
10	259	4	0
10	293	4.5	0
10	321	5	0
10	355	5.5	0
10	383	6	0
10	417	6.5	0
10	445	7	0
10	479	7.5	0
10	507	8	0
10	541	8.5	0
10	569	9	0
10	603	9.5	0
10	623	10	0
10	628	10.5	0
11	8	0	0
11	45	0.5	0
11	73	1	0
11	107	1.5	0
11	135	2	0
11	169	2.5	0
11	197	3	0
11	231	3.5	0
11	259	4	0
11	293	4.5	0
11	321	5	0
11	355	5.5	0
11	383	6	0
11	417	6.5	0
11	445	7	0
11	479	7.5	0
11	507	8	0
11	541	8.5	0
11	569	9	0
11	603	9.5	0
11	623	10	0
11	628	10.5	0
12	8	0	0
12	45	0.5	0
12	73	1	0
12	107	1.5	0
12	135	2	0
12	169	2.5	0
12	197	3	0
12	231	3.5	0
12	259	4	0
12	293	4.5	0
12	321	5	0
12	355	5.5	0
12	383	6	0
12	417	6.5	0
12	445	7	0
12	479	7.5	0
12	507	8	0
12	541	8.5	0
12	569	9	0
12	603	9.5	0
12	623	10	0
12	628	10.5	0
13	8	0	0
13	45	0.5	0
13	73	1	0
13	107	1.5	0
13	135	2	0
13	169	2.5	0
13	197	3	0
13	231	3.5	0
13	259	4	0
13	293	4.5	0
13	321	5	0
13	355	5.5	0
13	383	6	0
13	417	6.5	0
13	445	7	0
13	479	7.5	0
13	507	8	0
13	541	8.5	0
13	569	9	0
13	603	9.5	0
13	623	10	0
13	628	10.5	0
14	8	0	0
14	45	0.5	4
14	73	1	3
14	107	1.5	4
14	135	2	3
14	169	2.5	4
14	197	3	3
14	231	3.5	4
14	259	4	3
14	293	4.5	4
14	321	5	3
14	355	5.5	4
14	383	6	3
14	417	6.5	4
14	445	7	3
14	479	7.5	4
14	507	8	3
14	541	8.5	4
14	569	9	3
14	603	9.5	4
14	623	10	3
14	628	10.5	0
15	11	0	0
15	46	0.5	0
15	74	1	0
15	108	1.5	0
15	136	2	0
15	170	2.5	0
15	198	3	0
15	232	3.5	0
15	260	4	0
15	294	4.5	0
15	322	5	0
15	356	5.5	0
15	384	6	0
15	418	6.5	0
15	446	7	0
15	480	7.5	0
15	508	8	0
15	542	8.5	0
15	570	9	0
15	604	9.5	0
15	624	10	0
15	629	10.5	0
16	11	0	0
16	46	0.5	0
16	74	1	0
16	108	1.5	0
16	136	2	0
16	170	2.5	0
16	198	3	0
16	232	3.5	0
16	260	4	0
16	294	4.5	0
16	322	5	0
16	356	5.5	0
16	384	6	0
16	418	6.5	0
16	446	7	0
16	480	7.5	0
16	508	8	0
16	542	8.5	0
16	570	9	0
16	604	9.5	0
16	624	10	0
16	629	10.5	0
17	11	0	0
17	46	0.5	0
17	74	1	0
17	108	1.5	0
17	136	2	0
17	170	2.5	0
17	198	3	0
17	232	3.5	0
17	260	4	0
17	294	4.5	0
17	322	5	0
17	356	5.5	0
17	384	6	0
17	418	6.5	0
17	446	7	0
17	480	7.5	0
17	508	8	0
17	542	8.5	0
17	570	9	0
17	604	9.5	0
17	624	10	0
17	629	10.5	0
18	11	0	0
18	46	0.5	0
18	74	1	0
18	108	1.5	0
18	136	2	0
18	170	2.5	0
18	198	3	0
18	232	3.5	0
18	260	4	0
18	294	4.5	0
18	322	5	0
18	356	5.5	0
18	384	6	0
18	418	6.5	0
18	446	7	0
18	480	7.5	0
18	508	8	0
18	542	8.5	0
18	570	9	0
18	604	9.5	0
18	624	10	0
18	629	10.5	0
19	11	0	0
19	46	0.5	3
19	74	1	3
19	108	1.5	3
19	136	2	3
19	170	2.5	3
19	198	3	3
19	232	3.5	3
19	260	4	3
19	294	4.5	3
19	322	5	3
19	356	5.5	3
19	384	6	3
19	418	6.5	3
19	446	7	3
19	480	7.5	3
19	508	8	3
19	542	8.5	3
19	570	9	3
19	604	9.5	3
19	624	10	3
19	629	10.5	0
20	13	0	0
20	47	0.5	0
20	75	1	0
20	109	1.5	0
20	137	2	0
20	171	2.5	0
20	199	3	0
20	233	3.5	0
20	261	4	0
20	295	4.5	0
20	323	5	0
20	357	5.5	0
20	385	6	0
20	419	6.5	0
20	447	7	0
20	481	7.5	0
20	509	8	0
20	543	8.5	0
20	571	9	0
20	605	9.5	0
20	625	10	0
20	630	10.5	0
21	13	0	0
21	47	0.5	0
21	75	1	0
21	109	1.5	0
21	137	2	0
21	171	2.5	0
21	199	3	0
21	233	3.5	0
21	261	4	0
21	295	4.5	0
21	323	5	0
21	357	5.5	0
21	385	6	0
21	419	6.5	0
21	447	7	0
21	481	7.5	0
21	509	8	0
21	543	8.5	0
21	571	9	0
21	605	9.5	0
21	625	10	0
21	630	10.5	0
22	13	0	0
22	47	0.5	0
22	75	1	0
22	109	1.5	0
22	137	2	0
22	171	2.5	0
22	199	3	0
22	233	3.5	0
22	261	4	0
22	295	4.5	0
22	323	5	0
22	357	5.5	0
22	385	6	0
22	419	6.5	0
22	447	7	0
22	481	7.5	0
22	509	8	0
22	543	8.5	0
22	571	9	0
22	605	9.5	0
22	625	10	0
22	630	10.5	0
23	13	0	0
23	47	0.5	3
23	75	1	2
23	109	1.5	3
23	137	2	2
23	171	2.5	3
23	199	3	2
23	233	3.5	3
23	261	4	2
23	295	4.5	3
23	323	5	2
23	357	5.5	3
23	385	6	2
23	419	6.5	3
23	447	7	2
23	481	7.5	3
23	509	8	2
23	543	8.5	3
23	571	9	2
23	605	9.5	3
23	625	10	2
23	630	10.5	0
24	22	0.06	60
24	23	0.06	60
24	84	1.06	60
24	85	1.06	60
24	146	2.06	60
24	147	2.06	60
24	208	3.06	60
24	209	3.06	60
24	270	4.06	60
24	271	4.06	60
24	332	5.06	60
24	333	5.06	60
24	394	6.06	60
24	395	6.06	60
24	456	7.06	60
24	457	7.06	60
24	518	8.06	60
24	519	8.06	60
24	580	9.06	60
24	581	9.06	60
25	24	0.06	60
25	53	0.56	60
25	86	1.06	60
25	115	1.56	60
25	148	2.06	60
25	177	2.56	60
25	210	3.06	60
25	239	3.56	60
25	272	4.06	60
25	301	4.56	60
25	334	5.06	60
25	363	5.56	60
25	396	6.06	60
25	425	6.56	60
25	458	7.06	60
25	487	7.56	60
25	520	8.06	60
25	549	8.56	60
25	582	9.06	60
25	611	9.56	60
26	25	0.06	60
26	26	0.06	60
26	54	0.56	60
26	87	1.06	60
26	88	1.06	60
26	116	1.56	60
26	149	2.06	60
26	150	2.06	60
26	178	2.56	60
26	211	3.06	60
26	212	3.06	60
26	240	3.56	60
26	273	4.06	60
26	274	4.06	60
26	302	4.56	60
26	335	5.06	60
26	336	5.06	60
26	364	5.56	60
26	397	6.06	60
26	398	6.06	60
26	426	6.56	60
26	459	7.06	60
26	460	7.06	60
26	488	7.56	60
26	521	8.06	60
26	522	8.06	60
26	550	8.56	60
26	583	9.06	60
26	584	9.06	60
26	612	9.56	60
27	27	0.06	60
27	28	0.06	60
27	55	0.56	60
27	56	0.56	60
27	89	1.06	60
27	90	1.06	60
27	117	1.56	60
27	118	1.56	60
27	151	2.06	60
27	152	2.06	60
27	179	2.56	60
27	180	2.56	60
27	213	3.06	60
27	214	3.06	60
27	241	3.56	60
27	242	3.56	60
27	275	4.06	60
27	276	4.06	60
27	303	4.56	60
27	304	4.56	60
27	337	5.06	60
27	338	5.06	60
27	365	5.56	60
27	366	5.56	60
27	399	6.06	60
27	400	6.06	60
27	427	6.56	60
27	428	6.56	60
27	461	7.06	60
27	462	7.06	60
27	489	7.56	60
27	490	7.56	60
27	523	8.06	60
27	524	8.06	60
27	551	8.56	60
27	552	8.56	60
27	585	9.06	60
27	586	9.06	60
27	613	9.56	60
27	614	9.56	60
28	29	0.06	60
28	57	0.56	60
28	91	1.06	60
28	119	1.56	60
28	153	2.06	60
28	181	2.56	60
28	215	3.06	60
28	243	3.56	60
28	277	4.06	60
28	305	4.56	60
28	339	5.06	60
28	367	5.56	60
28	401	6.06	60
28	429	6.56	60
28	463	7.06	60
28	491	7.56	60
28	525	8.06	60
28	553	8.56	60
28	587	9.06	60
28	615	9.56	60

