version 2
run simpleNet-0-20181114-00:49:36-80700
attr configname simpleNet
attr datetime 20181114-00:49:36
attr experiment simpleNet
attr inifile omnetpp.ini
attr iterationvars ""
attr iterationvarsf ""
attr measurement ""
attr network simpleNet
attr processid 80700
attr repetition 0
attr replication #0
attr resultdir results
attr runnumber 0
attr seedset 0

vector 0 simpleNet.node[0] numInQueue:vector ETV
attr interpolationmode none
attr source numInQueue
attr title "total num in queue, vector"
vector 1 simpleNet.node[0] numProcessed:vector ETV
attr interpolationmode none
attr source numProcessed
attr title "num processing events in statRate, vector"
vector 2 simpleNet.node[1] numInQueue:vector ETV
attr interpolationmode none
attr source numInQueue
attr title "total num in queue, vector"
vector 3 simpleNet.node[1] numProcessed:vector ETV
attr interpolationmode none
attr source numProcessed
attr title "num processing events in statRate, vector"
vector 4 simpleNet.node[2] numInQueue:vector ETV
attr interpolationmode none
attr source numInQueue
attr title "total num in queue, vector"
vector 5 simpleNet.node[2] numProcessed:vector ETV
attr interpolationmode none
attr source numProcessed
attr title "num processing events in statRate, vector"
vector 6 simpleNet.node[3] numInQueue:vector ETV
attr interpolationmode none
attr source numInQueue
attr title "total num in queue, vector"
vector 7 simpleNet.node[3] numProcessed:vector ETV
attr interpolationmode none
attr source numProcessed
attr title "num processing events in statRate, vector"
vector 8 simpleNet.node[0] completionTime:vector ETV
attr interpolationmode none
attr source completionTime
attr title "completionTime, vector"
vector 9 simpleNet.node[3] completionTime:vector ETV
attr interpolationmode none
attr source completionTime
attr title "completionTime, vector"
0	2	0	0
0	2346	0.5	0
0	5515	1	0
0	8342	1.5	0
0	11355	2	0
0	14559	2.5	0
0	17569	3	0
1	2	0	0
1	2346	0.5	199
1	5515	1	326
1	8342	1.5	276
1	11355	2	306
1	14559	2.5	320
1	17569	3	302
2	3	0	0
2	2347	0.5	4
2	5516	1	0
2	8343	1.5	0
2	11356	2	0
2	14560	2.5	0
2	17570	3	0
3	3	0	0
3	2347	0.5	404
3	5516	1	644
3	8343	1.5	561
3	11356	2	601
3	14560	2.5	640
3	17570	3	596
4	4	0	0
4	2348	0.5	9
4	5517	1	0
4	8344	1.5	0
4	11357	2	0
4	14561	2.5	0
4	17571	3	8
5	4	0	0
5	2348	0.5	401
5	5517	1	650
5	8344	1.5	552
5	11357	2	605
5	14561	2.5	641
5	17571	3	601
6	6	0	0
6	2349	0.5	0
6	5518	1	0
6	8345	1.5	0
6	11358	2	0
6	14562	2.5	0
6	17572	3	0
7	6	0	0
7	2349	0.5	199
7	5518	1	327
7	8345	1.5	275
7	11358	2	304
7	14562	2.5	322
7	17572	3	293
8	391	0.18	180
8	426	0.186023769509	180
8	428	0.186286031497	180
8	430	0.186302722935	180
8	456	0.190744916784	180
8	460	0.191076580294	180
8	470	0.192271578153	180
8	516	0.204038673673	180
8	518	0.204089589571	180
8	524	0.206002153547	180
8	600	0.21855614292	180
8	609	0.220260795929	180
8	619	0.221048431155	180
8	655	0.227960443191	180
8	668	0.231130219762	180
8	704	0.237023999322	180
8	715	0.239379984867	180
8	720	0.239879658934	180
8	726	0.240740313269	180
8	735	0.241600867561	180
8	783	0.250342659703	180
8	787	0.250553996222	180
8	792	0.251548778445	180
8	794	0.251556442391	180
8	800	0.251977293957	180
8	865	0.265211762481	180
8	921	0.273684204106	180
8	932	0.276543441459	180
8	939	0.277602218722	180
8	943	0.278532017184	180
8	945	0.27901688369	180
8	993	0.285603330769	180
8	1016	0.29024618874	180
8	1029	0.291988868994	180
8	1085	0.301128908432	180
8	1087	0.301266436184	180
8	1090	0.301577407468	180
8	1101	0.303115955765	180
8	1132	0.310195752297	180
8	1163	0.312906875341	180
8	1181	0.316992620661	180
8	1208	0.322812431697	180
8	1211	0.323180585592	180
8	1239	0.327606247639	180
8	1256	0.330003983622	180
8	1267	0.330901813444	180
8	1275	0.331655708997	180
8	1293	0.334401701387	180
8	1350	0.34275451026	180
8	1371	0.346878825806	180
8	1413	0.355074090468	180
8	1418	0.356035598349	180
8	1423	0.356588351855	180
8	1454	0.360842539163	180
8	1486	0.365883136328	180
8	1496	0.367187847335	180
8	1505	0.369930883303	180
8	1516	0.371192354647	180
8	1562	0.377031910807	180
8	1598	0.383676053031	180
8	1607	0.385804714279	180
8	1617	0.387696044344	180
8	1653	0.392145981333	180
8	1669	0.395469741638	180
8	1688	0.398021711606	180
8	1702	0.400399381246	180
8	1711	0.401677039197	180
8	1746	0.405653575006	180
8	1748	0.405706842911	180
8	1771	0.409389370596	180
8	1817	0.418091173598	180
8	1827	0.419427524327	180
8	1839	0.421546703458	180
8	1892	0.430218686473	188.509988613
8	1910	0.432042546459	185.151790753
8	1964	0.438682437554	183.884003499
8	1987	0.443245210815	186.901567441
8	2005	0.445961680627	185.47595808
8	2021	0.449258086916	188.355591398
8	2026	0.450384885799	188.461994104
8	2068	0.456754462241	192.43819845
8	2082	0.460010809471	190.793387079
8	2087	0.460336776163	189.451763112
8	2089	0.460438319726	183.631728176
8	2138	0.467627104055	180
8	2142	0.468467926476	180
8	2168	0.472941485889	180
8	2176	0.473450361473	180
8	2191	0.476484627328	180
8	2316	0.495789233259	180
8	2337	0.498690221984	180
8	2339	0.498970464168	180
8	2363	0.503329975396	180
8	2387	0.507919387812	180
8	2399	0.509163012628	180
8	2406	0.510576908604	180
8	2428	0.514643247527	180
8	2431	0.514814465481	180
8	2473	0.52174927341	180
8	2475	0.521768169802	180
8	2486	0.522469911319	180
8	2488	0.522556761689	180
8	2501	0.524568141318	180
8	2503	0.524576113016	180
8	2518	0.527345622581	180
8	2587	0.538956932461	180
8	2589	0.539089666239	180
8	2638	0.54681614551	180
8	2690	0.553265881884	180
8	2694	0.553589519583	180
8	2698	0.554411886928	180
8	2732	0.559599656015	180
8	2743	0.561206059187	180
8	2746	0.561514305129	180
8	2757	0.563616951788	180
8	2766	0.565812762972	180
8	2808	0.572815130542	180
8	2816	0.574441032816	180
8	2822	0.575007211921	180
8	2835	0.576464093747	180
8	2842	0.577029701839	180
8	2845	0.577677634322	180
8	2912	0.586619340612	180
8	2914	0.587108973819	180
8	2938	0.590265561719	180
8	2967	0.594932007978	180
8	2974	0.59621590356	180
8	2976	0.596286254194	180
8	3017	0.60309848192	180
8	3037	0.606450342464	180
8	3049	0.608086590915	180
8	3058	0.609403552498	180
8	3061	0.60974435977	180
8	3079	0.612106627864	180
8	3089	0.613506223582	180
8	3094	0.613974172242	180
8	3096	0.613989116491	180
8	3104	0.615199200051	180
8	3127	0.618563736205	181.745830393
8	3178	0.626975157587	180
8	3212	0.631907992203	180
8	3244	0.637795512591	180
8	3279	0.642124838648	180
8	3311	0.646575824078	183.858746533
8	3336	0.650130309377	186.074101502
8	3355	0.653429623326	187.645580997
8	3363	0.654139004402	187.793705911
8	3402	0.661228623111	191.887671977
8	3405	0.661417546985	189.046247831
8	3407	0.661707151847	188.846004645
8	3432	0.665899212216	187.159690466
8	3449	0.668874531397	187.561910445
8	3452	0.669158398117	181.546070291
8	3464	0.671121929246	182.939549405
8	3473	0.671962269416	180.892480274
8	3480	0.672283162266	180.813531006
8	3512	0.677616458766	180
8	3561	0.683661976167	184.44155556
8	3577	0.687867599047	180
8	3583	0.688753456148	180
8	3592	0.689254788781	180
8	3606	0.691810247235	180
8	3655	0.69987220327	180
8	3679	0.7022264221	180
8	3701	0.704996413791	180
8	3707	0.706089156824	180
8	3728	0.708462940374	181.922248032
8	3742	0.710338929827	180
8	3759	0.712787345014	180
8	3786	0.717366360616	180
8	3841	0.726595461046	180
8	3873	0.731736164539	180
8	3919	0.738080780238	180
8	3946	0.741411110751	180
8	3978	0.74582888491	180
8	4005	0.750347813071	180
8	4026	0.754151944698	180
8	4033	0.754673637869	180
8	4038	0.755373004134	180
8	4040	0.755641041614	180
8	4046	0.756754462241	180.675924154
8	4064	0.760010809471	183.570310974
8	4067	0.760336776163	181.554776917
8	4069	0.760438319726	181.647578628
8	4108	0.767627104055	188.130252708
8	4119	0.768467926476	185.986032095
8	4147	0.772941485889	185.355024228
8	4151	0.773450361473	182.91068272
8	4170	0.776484627328	182.745272593
8	4298	0.795789233259	199.366888574
8	4318	0.798690221984	200.676061118
8	4322	0.798970464168	198.553558712
8	4348	0.803329975396	202.517844857
8	4373	0.807919387812	204.838050284
8	4380	0.809163012628	205.483563555
8	4387	0.810576908604	206.746071575
8	4411	0.814643247527	206.086402754
8	4414	0.814814465481	201.161001397
8	4448	0.82174927341	207.946173322
8	4450	0.821768169802	204.353877896
8	4456	0.822469911319	202.208950729
8	4458	0.822556761689	202.112066653
8	4475	0.824568141318	198.195704514
8	4477	0.824576113016	194.704902545
8	4492	0.827345622581	195.95579409
8	4560	0.838956932461	206.034846119
8	4562	0.839089666239	205.437421973
8	4608	0.84681614551	211.059787939
8	4654	0.853265881884	211.867989029
8	4656	0.853589519583	208.877216081
8	4659	0.854411886928	206.063252741
8	4700	0.859599656015	210.634854828
8	4704	0.861206059187	210.586339696
8	4708	0.861514305129	203.213787694
8	4725	0.863616951788	197.983335866
8	4731	0.865812762972	198.581715025
8	4762	0.872815130542	205.379026385
8	4775	0.874441032816	206.003131597
8	4799	0.877235265156	208.146993618
8	4807	0.878655805789	207.688422794
8	4809	0.878773568295	207.659697745
8	4831	0.881942368025	209.898358961
8	4862	0.886619340612	208.394615161
8	4877	0.888423073904	208.290396505
8	4898	0.892327645291	209.240602442
8	4912	0.894932007978	207.004207252
8	4918	0.89621590356	207.018164173
8	4922	0.896666865903	206.543585819
8	4950	0.90309848192	210.233581864
8	4976	0.906450342464	212.879679574
8	4987	0.908086590915	213.635004364
8	4994	0.909403552498	211.522097868
8	5013	0.912042936589	212.045472918
8	5029	0.914420016438	210.904492796
8	5037	0.915570539935	210.535538141
8	5072	0.921801999678	215.388120888
8	5086	0.924276567836	214.938464402
8	5113	0.930185780486	219.200932693
8	5120	0.930675481359	215.649279804
8	5122	0.93091776756	214.622628868
8	5129	0.932438596285	204.355053315
8	5204	0.944508666279	215.998382669
8	5219	0.94632843472	210.460955189
8	5259	0.953485395104	209.97271133
8	5263	0.954870067801	209.309332743
8	5268	0.957355712419	209.845976824
8	5294	0.960957199778	208.744497615
8	5318	0.964995118808	212.564668322
8	5337	0.967699976932	209.147307563
8	5345	0.969951635829	209.343935416
8	5364	0.972668683089	207.816100388
8	5403	0.978137272939	209.395812054
8	5414	0.98004116327	210.717461842
8	5420	0.981628994501	211.735805979
8	5422	0.9817511339	201.740740831
8	5424	0.981968903148	201.861383783
8	5442	0.987484609581	198.004284385
8	5463	0.99175544871	199.443479118
8	5468	0.993778659445	198.525637527
8	5485	0.995196338903	198.899621856
8	5494	0.996674482314	196.953065999
8	5526	1.000574113756	199.907525446
8	5570	1.007692778066	200.114393108
8	5576	1.008160469053	194.486751239
8	5579	1.009415311856	194.838442314
8	5582	1.009593699611	194.001305702
8	5641	1.024162196819	206.780876498
8	5644	1.024221947724	199.026711474
8	5687	1.030163115755	202.911846411
8	5695	1.032150803978	204.004583079
8	5704	1.033088503725	200.852767711
8	5717	1.035681111345	184.317318595
8	5730	1.038080780238	184.487281825
8	5742	1.041411110751	185.756523005
8	5763	1.047223673596	180
8	5780	1.050347813071	180.726771179
8	5796	1.054151944698	181.814841504
8	5803	1.054833250259	180
8	5841	1.06003185982	180
8	5910	1.074681148403	180
8	5913	1.07503949571	180
8	5944	1.080209882394	180
8	5951	1.081314200197	180
8	5970	1.085190021729	180
8	5974	1.085346199954	180
8	6008	1.09042917236	180
8	6013	1.092794833372	180
8	6028	1.095244761464	180
8	6048	1.099185139601	180
8	6065	1.102954915221	180
8	6090	1.107478318049	180
8	6104	1.10919520079	180
8	6136	1.114887277667	180
8	6146	1.115956995436	180
8	6157	1.117391528078	180
8	6195	1.124709472744	180
8	6204	1.126254633243	180
8	6206	1.126347232665	180
8	6264	1.137687052544	180
8	6266	1.13809943224	180
8	6290	1.142412897723	180
8	6293	1.142809142687	180
8	6302	1.144349870879	180
8	6308	1.145292400623	180
8	6317	1.146886792974	180
8	6325	1.148280207817	180
8	6333	1.149119863049	180
8	6354	1.153788330283	180
8	6358	1.154472614974	180
8	6370	1.156364491993	180
8	6385	1.1604333607	180
8	6480	1.176912007169	191.31488307
8	6489	1.178310389562	180
8	6499	1.18	180
8	6522	1.1851827002	180
8	6581	1.19530308099	180
8	6603	1.19942871141	180
8	6607	1.19971387026	180
8	6629	1.204020812595	181.345817775
8	6636	1.205585323226	180.521447856
8	6658	1.20968793477	180
8	6693	1.21746057916	180
8	6700	1.21920199843	180
8	6708	1.22090411599	180
8	6716	1.22162922431	180
8	6780	1.230995564012	182.401490392
8	6804	1.235631322005	185.990901325
8	6809	1.236790758876	183.515136736
8	6839	1.242851933396	185.248413196
8	6841	1.242910673798	182.578972838
8	6854	1.24638243146	180
8	6926	1.2582704457	191.22155115
8	6928	1.258276575976	182.034627286
8	6931	1.258893766521	181.649082301
8	6962	1.264216489267	181.877176617
8	6971	1.26702671666	180
8	7014	1.275409838863	187.696899913
8	7028	1.277858326889	189.780450399
8	7038	1.280916814383	189.231902153
8	7135	1.29658372926	202.55533738
8	7156	1.300017655241	201.558854041
8	7211	1.310976292808	212.407670338
8	7231	1.314085151982	213.962057072
8	7234	1.3142796844	209.34589221
8	7258	1.316251210554	209.155281534
8	7261	1.316262507343	209.105967003
8	7264	1.31674116254	207.39509731
8	7286	1.321172103202	211.695925182
8	7289	1.321831656379	209.187910389
8	7307	1.3252202003	211.737092
8	7331	1.33	211.35042212
8	7346	1.33229848123	213.44000487
8	7381	1.33956778504	217.91807203
8	7392	1.34166342712	200.30514724
8	7403	1.34404651038	190.55834497
8	7412	1.34447938343	190.26335651
8	7444	1.34930114267	191.32994199
8	7446	1.34939923461	185.79073332
8	7459	1.35115759866	186.16135546
8	7490	1.35627028727	186.55452125
8	7524	1.36234931533	188.48261415
8	7566	1.37153254059	194.18475462
8	7613	1.37665740924	194.90730203
8	7648	1.38327750166	192.35149541
8	7683	1.38953676804	197.34962245
8	7713	1.39528098393	200.2244595
8	7735	1.40020057924	200.61942797
8	7747	1.4028543568	199.53562631
8	7749	1.40291370744	197.57783785
8	7754	1.40351307713	192.01709235
8	7760	1.40383215158	191.47761006
8	7764	1.40431295043	185.7507422
8	7773	1.40494413815	185.22401709
8	7784	1.40599843161	185.7408918
8	7800	1.40928344706	180
8	7807	1.41044335219	180
8	7850	1.41808428251	185.63016056
8	7901	1.42682550195	189.10256797
8	7906	1.42778518886	188.99980443
8	7931	1.43254907357	189.01003843
8	7948	1.43448811122	181.52916779
8	7967	1.43585090641	181.79011059
8	8001	1.4433192068	188.90589499
8	8005	1.44356234021	182.48089919
8	8066	1.45417067485	180
8	8070	1.45506337443	180
8	8077	1.45582822394	180
8	8084	1.45656231024	180
8	8135	1.46486966309	180
8	8145	1.46540010563	180
8	8147	1.46545836431	180
8	8164	1.46949650492	180
8	8213	1.47852797946	188.43563159
8	8220	1.48009323371	180
8	8233	1.48220461136	180
8	8257	1.48513016842	180.32533647
8	8284	1.48859346895	181.23369559
8	8294	1.49147682722	181.1158167
8	8314	1.49491703958	181.651108
8	8352	1.50160846132	180
8	8383	1.50644197697	180
8	8421	1.51212389396	180
8	8425	1.51266576164	180
8	8505	1.52524237243	180
8	8517	1.52720372036	180
8	8522	1.52795378332	180
8	8524	1.52841134347	180
8	8529	1.53007332761	180
8	8552	1.53353803698	180
8	8573	1.53717455301	180
8	8609	1.54302699688	180
8	8644	1.54757880638	180
8	8671	1.553668385	180
8	8674	1.55375764753	180
8	8681	1.55466916297	180
8	8685	1.55511472735	180
8	8698	1.5571754549	180
8	8738	1.56580198897	180
8	8745	1.56685497635	180
8	8753	1.56768435541	180
8	8785	1.57345116822	183.46236856
8	8798	1.57455641033	180
8	8856	1.58432447585	180
8	8879	1.58749727049	180
8	8899	1.59291527831	180
8	8909	1.5941466511	180
8	8967	1.60408806644	180
8	8992	1.60658998023	180
8	8998	1.6079625517	180
8	9001	1.60808032295	180
8	9007	1.60877004434	180
8	9021	1.61233581236	180
8	9039	1.61572560455	180
8	9042	1.61606727708	180
8	9054	1.61914137996	180
8	9095	1.62758058994	180
8	9099	1.62870168713	180.61948386
8	9143	1.63485005149	180
8	9147	1.63599332185	180
8	9179	1.64220630012	180
8	9214	1.64848119488	180
8	9234	1.65252895564	180
8	9242	1.65331574958	180
8	9256	1.65674421419	180
8	9296	1.6623676443	180
8	9305	1.66384098545	180
8	9307	1.66400288242	180
8	9310	1.66421293295	180
8	9329	1.66798764467	180
8	9351	1.67426429701	180
8	9428	1.68578609891	180
8	9463	1.69125941251	180
8	9498	1.69757223564	180
8	9524	1.70370486196	180
8	9527	1.70429583592	180
8	9548	1.70577926103	180
8	9553	1.70624437234	180
8	9575	1.71040637571	180
8	9588	1.7125676313	180
8	9602	1.71501070642	180
8	9630	1.72087731533	180
8	9638	1.72165060597	180
8	9673	1.72814685857	180
8	9823	1.75231503609	180
8	9830	1.75371074958	180
8	9841	1.75604579182	180
8	9843	1.75627845737	180
8	9865	1.76220894647	180
8	9891	1.76608563088	180
8	9908	1.76936035716	180
8	9940	1.77303716651	180
8	9975	1.77891213338	180
8	9997	1.78308186527	180
8	10005	1.78458696441	180
8	10007	1.78477860109	180
8	10020	1.78821569542	180
8	10046	1.79453316402	180
8	10083	1.79933206987	180
8	10090	1.80021664352	180
8	10137	1.80624328262	180
8	10146	1.80757635582	180
8	10155	1.80899493862	180
8	10160	1.81055010533	180
8	10207	1.81900259146	180
8	10215	1.82142909313	180
8	10234	1.82457229444	180
8	10239	1.82488579821	180
8	10282	1.83040270357	180
8	10286	1.83044698665	180
8	10294	1.83188172286	180
8	10304	1.83300226418	180
8	10317	1.8347630848	180
8	10340	1.83842308906	180
8	10355	1.84078827751	180
8	10362	1.8410589709	180
8	10366	1.84127273882	180
8	10390	1.84539449749	180
8	10428	1.85444231717	180
8	10438	1.85508304367	180
8	10442	1.85555351884	180
8	10457	1.85743951033	180
8	10472	1.86009825051	180
8	10491	1.86224496693	180
8	10504	1.86354902051	180
8	10520	1.86615116984	180
8	10539	1.8685751639	180
8	10552	1.87103694382	180
8	10570	1.87309673799	180
8	10581	1.87439154758	180
8	10597	1.8774754136	180
8	10607	1.87875441702	180
8	10611	1.87996732573	180
8	10680	1.89212438521	180
8	10702	1.89550108316	180
8	10705	1.89599898488	180
8	10712	1.89699091106	180
8	10763	1.9037362496	180
8	10782	1.90718276396	180
8	10788	1.90797238119	180
8	10800	1.91199767891	180
8	10818	1.91507319462	180
8	10820	1.91515450052	180
8	10844	1.91917776242	180
8	10851	1.9194168853	180
8	10867	1.92146147596	180
8	10885	1.92473791444	180
8	10922	1.93051792213	180
8	11025	1.94774092929	180
8	11029	1.94853287933	180
8	11052	1.95073099861	180
8	11063	1.95286566996	180
8	11089	1.95720092034	180
8	11091	1.95725674017	180
8	11124	1.96140543864	180
8	11135	1.96371069167	180
8	11147	1.96566387753	180
8	11164	1.97090426997	180
8	11181	1.97419922412	180
8	11198	1.97655415676	180
8	11210	1.97766923867	180
8	11220	1.9791089218	180
8	11226	1.97995178723	180
8	11243	1.98196489622	180
8	11252	1.98310526416	180
8	11291	1.98849119551	180
8	11300	1.98976067258	180
8	11304	1.99070804876	180
8	11311	1.99128785347	180
8	11375	2.00327338777	180
8	11398	2.00656261558	180
8	11436	2.0113592143	180
8	11441	2.01214762544	180
8	11454	2.01347878009	180
8	11466	2.0155339825	180
8	11475	2.01700392174	180
8	11515	2.02257691935	180
8	11517	2.02263192659	180
8	11537	2.0259838142	180
8	11556	2.02945300497	180
8	11578	2.03316815675	180
8	11583	2.03447096976	180
8	11622	2.03923117539	180
8	11659	2.04547795267	180
8	11707	2.05231503609	186.01096324
8	11717	2.05371074958	184.71652059
8	11732	2.05604579182	183.73559259
8	11734	2.05627845737	183.72715069
8	11771	2.06220894647	184.59274415
8	11810	2.06888859458	180
8	11828	2.07077821475	180
8	11840	2.07303716651	181.6367678
8	11879	2.07891213338	184.56892668
8	11902	2.08308186527	185.15760179
8	11913	2.08458696441	185.99462934
8	11916	2.08477860109	181.45870268
8	11964	2.09212005289	180
8	11979	2.09486097777	180
8	12011	2.09933206987	182.55300654
8	12014	2.10021664352	182.69299791
8	12051	2.10624328262	186.77785581
8	12065	2.10757635582	186.66912244
8	12074	2.10899493862	184.11208883
8	12097	2.11312755224	180
8	12130	2.11900259146	183.64938236
8	12149	2.12174231371	180
8	12166	2.12457229444	182.33524329
8	12171	2.12488579821	182.41281644
8	12208	2.13040270357	187.85271524
8	12210	2.13044698665	182.00685965
8	12235	2.13516493029	180
8	12276	2.14076337118	180
8	12298	2.14511699814	180
8	12332	2.15035116828	180
8	12334	2.15040806787	180
8	12362	2.15519544901	180
8	12364	2.15520878958	180
8	12387	2.15895436203	180
8	12399	2.16057633578	180
8	12440	2.16714939154	180
8	12444	2.16727432056	180
8	12459	2.16917538202	180
8	12506	2.17733917263	180
8	12522	2.18	180
8	12567	2.18650694344	180
8	12600	2.1909091142	180
8	12602	2.19127668926	180
8	12616	2.19283615391	180
8	12627	2.19362779191	180
8	12635	2.19529577526	180
8	12668	2.19994123465	180
8	12677	2.2006764873	180
8	12680	2.20078085121	180
8	12682	2.20085847645	180
8	12689	2.20126541441	180
8	12712	2.20652940064	180
8	12731	2.20994899207	180
8	12756	2.21221102987	180
8	12762	2.2137782562	180
8	12780	2.21674921511	180
8	12815	2.22158568732	180
8	12824	2.2226029572	180
8	12850	2.22708130943	180
8	12866	2.22849023076	180
8	12877	2.23026665409	180
8	12879	2.23037413665	180
8	12882	2.23042426116	180
8	12891	2.23086546216	180
8	13000	2.24774092929	193.72065286
8	13003	2.24853287933	190.13849552
8	13019	2.25073099861	191.17427613
8	13034	2.25286566996	192.82016803
8	13053	2.25720092034	194.24829592
8	13055	2.25725674017	191.73047294
8	13091	2.26140543864	193.17506359
8	13097	2.26371069167	192.66266893
8	13108	2.26566387753	188.53959874
8	13137	2.27090426997	185.57922866
8	13157	2.27419922412	188.52560667
8	13174	2.27655415676	190.79836755
8	13180	2.27766923867	186.83654829
8	13313	2.30031494267	207.84768376
8	13324	2.30149656305	202.92414886
8	13337	2.30448346215	203.97267045
8	13357	2.30679320708	205.07409866
8	13372	2.31037953871	206.3215131
8	13404	2.3135993621	209.23918259
8	13413	2.31634373511	207.04702496
8	13436	2.31883251547	206.29724715
8	13480	2.32712954059	213.33838248
8	13487	2.32816218255	213.63431836
8	13495	2.33	214.43494178
8	13548	2.33692439292	218.03126287
8	13555	2.33801603902	210.26420942
8	13579	2.34214302923	205.35584738
8	13581	2.34238497891	204.33083668
8	13590	2.34311691417	197.52912702
8	13592	2.34319002128	195.83176838
8	13606	2.34559889554	197.25866153
8	13623	2.34730562018	194.73578527
8	13625	2.34772789576	193.9752167
8	13654	2.35113975529	186.78069265
8	13679	2.35699905796	192.18940712
8	13686	2.35793831506	188.9226896
8	13701	2.36111735504	185.99969031
8	13708	2.36195470514	185.46312932
8	13711	2.36198874962	183.93927824
8	13721	2.36269114788	181.57264103
8	13738	2.36626010135	183.98450128
8	13759	2.36949946983	180
8	13811	2.37701153246	185.60610836
8	13855	2.38202053857	190.14740634
8	13859	2.38369344322	187.18145282
8	13869	2.38484394623	186.97052728
8	13876	2.38645201972	188.56620733
8	13889	2.38951481848	187.4681103
8	13909	2.39212005289	189.95742612
8	13930	2.39486097777	191.26953715
8	13955	2.39933206987	191.26333419
8	13963	2.40051097513	190.4717829
8	14013	2.40863127263	198.47932018
8	14019	2.40953478669	198.09650615
8	14041	2.41388765208	200.3587922
8	14044	2.41463304089	198.56580466
8	14063	2.41900259146	201.29459869
8	14080	2.42174231371	192.54185687
8	14100	2.42457229444	193.2494763
8	14106	2.42488579821	185.62591172
8	14134	2.43040270357	187.20894708
8	14170	2.43696021743	180
8	14184	2.43868428975	180
8	14222	2.44659408971	180
8	14269	2.45411201279	180
8	14324	2.46241448867	180
8	14360	2.46828223881	180
8	14376	2.4712347674	180
8	14382	2.47279857343	180
8	14395	2.4762295083	180
8	14406	2.47759135321	180
8	14418	2.48037533741	180
8	14460	2.4851974062	180
8	14462	2.48554856579	180
8	14491	2.49154627648	180
8	14493	2.49156339631	180
8	14507	2.49282401968	180
8	14515	2.49354625424	180
8	14535	2.49653722944	180
8	14551	2.49836920136	180
8	14625	2.51197618781	180
8	14637	2.51306437572	180
8	14640	2.51370785605	180
8	14642	2.51391352034	180
8	14661	2.5172752024	180
8	14664	2.51800809633	180
8	14691	2.52203714172	180
8	14714	2.52485511574	180
8	14716	2.52535561826	180
8	14729	2.52704519209	180
8	14779	2.5362653928	180
8	14795	2.54126066654	180
8	14800	2.54145731037	180
8	14852	2.54976548519	180
8	14890	2.55637748815	180
8	14904	2.55853177737	180
8	14913	2.55970265978	180
8	14933	2.56359125828	180
8	14936	2.56417057431	180
8	14944	2.5660078613	180
8	14976	2.57163916621	180
8	14986	2.57283137634	180
8	14991	2.57400330225	180
8	15012	2.57687873816	180
8	15016	2.57717856165	180
8	15056	2.58608950213	180
8	15085	2.59012304134	180
8	15089	2.59038234505	180
8	15112	2.59483850028	180
8	15137	2.5993318732	180
8	15201	2.60733733292	180
8	15208	2.60908807892	180
8	15249	2.61676311123	180
8	15263	2.6189630833	180
8	15266	2.61928892822	180
8	15282	2.6226297608	180
8	15297	2.6260765169	180
8	15307	2.6272877123	180
8	15320	2.62985793215	180
8	15334	2.63188720534	180
8	15349	2.63320766804	180
8	15358	2.63514875522	180
8	15473	2.65475676409	180
8	15499	2.65993848363	180
8	15505	2.660678596	180
8	15582	2.67305285098	180
8	15591	2.67440769899	180
8	15600	2.67604956831	180
8	15607	2.67679568479	180
8	15625	2.67905442523	180
8	15651	2.68426687975	180
8	15693	2.6912310576	180
8	15738	2.70008383676	180
8	15740	2.70042301694	180
8	15749	2.70254391708	180
8	15751	2.70255896774	180
8	15785	2.7073020008	180
8	15809	2.71051228446	180
8	15822	2.71348909578	180
8	15832	2.71512971042	180
8	15881	2.72249352863	180
8	15936	2.73425374711	180
8	15971	2.73866443696	180
8	15983	2.740256654	180
8	15999	2.74342643457	180
8	16014	2.74686443483	180
8	16016	2.74694246075	180
8	16022	2.74706525248	180
8	16057	2.75211974558	180
8	16083	2.75581324511	180
8	16088	2.75665559182	180
8	16098	2.75780770973	180
8	16117	2.76342649779	180
8	16175	2.77240513423	180
8	16180	2.77272963632	180
8	16214	2.77825738303	180
8	16219	2.77915516864	180
8	16221	2.77918063118	180
8	16245	2.7823989749	180
8	16247	2.78244613714	180
8	16254	2.78421130053	180
8	16273	2.78666574837	180
8	16275	2.78707666108	180
8	16303	2.79348324486	180
8	16306	2.79373757563	180
8	16312	2.79474135328	180
8	16332	2.79766127595	180
8	16349	2.79991313662	180
8	16380	2.80589796915	180
8	16414	2.81063979317	180
8	16441	2.81460443366	180
8	16460	2.81949651217	180
8	16532	2.82929667695	180
8	16548	2.83270091544	180
8	16561	2.83442107421	180
8	16571	2.83651522331	180
8	16575	2.83704494029	180
8	16601	2.84004769393	180
8	16610	2.84109893171	180
8	16656	2.85086245389	180
8	16660	2.85155276232	180
8	16663	2.85198087167	180
8	16685	2.85511518835	180
8	16687	2.85516822334	180
8	16702	2.85727609031	180
8	16707	2.85766304121	180
8	16712	2.85807672498	180
8	16714	2.85816522945	180
8	16740	2.86280061192	180
8	16770	2.8670799618	180
8	16776	2.86789458355	180
8	16781	2.86840439222	180
8	16787	2.86925729292	180
8	16820	2.87475760209	180
8	16837	2.88008183299	180
8	16876	2.88560459727	180
8	16882	2.88619283729	180
8	16886	2.88657588194	180
8	16897	2.88794726567	180
8	16918	2.8912574069	180
8	17007	2.90474025687	180
8	17038	2.91105597448	180
8	17065	2.91590003734	180
8	17071	2.91628243352	180
8	17080	2.91783656502	180
8	17104	2.92035693986	180
8	17141	2.92744222317	180
8	17162	2.93077658034	180
8	17189	2.93435203621	180
8	17192	2.93447437684	180
8	17199	2.93536129195	180
8	17209	2.93708846742	180
8	17221	2.93956729958	180
8	17230	2.94195379644	180
8	17251	2.94576485067	180
8	17255	2.94611983033	180
8	17275	2.94921766616	180
8	17324	2.95717111238	180
8	17331	2.95829242126	180
8	17352	2.96153084607	180
8	17364	2.96355488703	180
8	17409	2.97297106865	180
8	17413	2.97366555837	180
8	17417	2.97423536702	180
8	17455	2.97965002756	180
8	17459	2.98026283581	180
8	17468	2.98232494425	180
8	17473	2.98273031398	180
8	17478	2.98330808636	180
8	17522	2.9904238778	180
8	17540	2.99323126189	180
9	393	0.18	180
9	408	0.181739762851	180
9	410	0.182219667201	180
9	421	0.18522065032	180
9	435	0.186871591183	180
9	443	0.189676953736	180
9	477	0.195324404672	180
9	482	0.196489037613	180
9	498	0.201097295997	180
9	505	0.201563528857	180
9	538	0.208313818905	180
9	541	0.209086423773	180
9	555	0.210409938915	180
9	572	0.212837997798	180
9	657	0.228436179622	180
9	661	0.229007931526	180
9	682	0.233554292632	180
9	698	0.236227410167	180
9	753	0.245700182937	180
9	756	0.246309071645	180
9	843	0.261130253986	180
9	851	0.262779236072	180
9	875	0.267019282574	180
9	954	0.280218686473	180
9	975	0.282042546459	180
9	1010	0.288682437554	180
9	1037	0.293245210815	180
9	1050	0.295961680627	180
9	1065	0.299258086916	180
9	1075	0.300384885799	180
9	1117	0.306754462241	180
9	1128	0.310010809471	180
9	1137	0.310336776163	180
9	1140	0.310438319726	180
9	1142	0.3111576655	180
9	1146	0.311670018193	180
9	1154	0.3123512321	180
9	1159	0.312844676388	180
9	1203	0.321214525033	180
9	1205	0.321463480571	180
9	1220	0.323829323948	180
9	1252	0.329609908598	180
9	1254	0.329641875849	180
9	1260	0.330532095091	180
9	1299	0.335558283559	180
9	1319	0.34015852433	180
9	1353	0.342858171198	180
9	1373	0.346968640589	180
9	1385	0.348963881128	180
9	1393	0.351053528029	180
9	1420	0.356129947356	180
9	1426	0.356821339667	180
9	1436	0.358810515646	180
9	1469	0.36222593219	180
9	1472	0.363030259694	180
9	1475	0.363611881795	180
9	1477	0.363937497219	180
9	1524	0.37195493556	180
9	1547	0.375352219356	180
9	1557	0.376031515271	180
9	1619	0.387779232565	180
9	1631	0.389364586961	180
9	1676	0.39634806245	180
9	1686	0.397708002638	180
9	1719	0.402180610249	180
9	1735	0.40424086999	180
9	1751	0.405856285136	180
9	1758	0.407063564209	180
9	1776	0.410046593489	180
9	1783	0.41113154568	180
9	1797	0.413702917683	180
9	1799	0.413866063332	180
9	1833	0.420829600551	180
9	1844	0.421787908622	180
9	1855	0.423597668329	180
9	1887	0.429708198167	180
9	1894	0.430314019948	180
9	1904	0.43156411819	180
9	1915	0.432318891554	180
9	1941	0.434854941825	180
9	1944	0.435634856775	180
9	1978	0.440855567036	180
9	1997	0.444067636299	180
9	2036	0.45165860935	180
9	2042	0.452051134136	180
9	2059	0.455407045862	180
9	2105	0.462480615059	180
9	2114	0.463807582369	180
9	2144	0.468563736205	180
9	2156	0.469982192727	180
9	2214	0.480834403217	180
9	2228	0.482232727946	180
9	2246	0.485941246606	180
9	2319	0.496575824078	180
9	2351	0.500130309377	180
9	2365	0.503429623326	180
9	2372	0.504139004402	180
9	2409	0.511228623111	180
9	2415	0.511417546985	180
9	2417	0.511707151847	180
9	2434	0.515899212216	180
9	2455	0.518874531397	180
9	2457	0.519158398117	180
9	2467	0.521121929246	180
9	2477	0.521962269416	180
9	2483	0.522283162266	180
9	2490	0.522731111428	180
9	2561	0.533661976167	180
9	2574	0.536735559514	180
9	2582	0.538741339151	180
9	2585	0.53884730445	180
9	2603	0.541273373967	180