version 2
run simpleNet-0-20181107-05:14:24-31196
attr configname simpleNet
attr datetime 20181107-05:14:24
attr experiment simpleNet
attr inifile omnetpp.ini
attr iterationvars ""
attr iterationvarsf ""
attr measurement ""
attr network simpleNet
attr processid 31196
attr repetition 0
attr replication #0
attr resultdir results
attr runnumber 0
attr seedset 0

vector 0 simpleNet.node[0] numInQueue:vector ETV
attr interpolationmode none
attr source numInQueue
attr title "total num in queue, vector"
vector 1 simpleNet.node[0] numProcessed:vector ETV
attr interpolationmode none
attr source numProcessed
attr title "num processed in statRate time, vector"
vector 2 simpleNet.node[1] numInQueue:vector ETV
attr interpolationmode none
attr source numInQueue
attr title "total num in queue, vector"
vector 3 simpleNet.node[1] numProcessed:vector ETV
attr interpolationmode none
attr source numProcessed
attr title "num processed in statRate time, vector"
vector 4 simpleNet.node[2] numInQueue:vector ETV
attr interpolationmode none
attr source numInQueue
attr title "total num in queue, vector"
vector 5 simpleNet.node[2] numProcessed:vector ETV
attr interpolationmode none
attr source numProcessed
attr title "num processed in statRate time, vector"
vector 6 simpleNet.node[3] numInQueue:vector ETV
attr interpolationmode none
attr source numInQueue
attr title "total num in queue, vector"
vector 7 simpleNet.node[3] numProcessed:vector ETV
attr interpolationmode none
attr source numProcessed
attr title "num processed in statRate time, vector"
vector 8 simpleNet.node[0] completionTime:vector ETV
attr interpolationmode none
attr source completionTime
attr title "completionTime, vector"
vector 9 simpleNet.node[3] completionTime:vector ETV
attr interpolationmode none
attr source completionTime
attr title "completionTime, vector"
0	2	0	0
0	153	0.5	0
0	337	1	0
0	521	1.5	0
0	705	2	0
0	889	2.5	0
0	1073	3	0
0	1257	3.5	0
0	1441	4	0
0	1625	4.5	0
0	1809	5	0
0	1993	5.5	0
0	2177	6	0
0	2361	6.5	0
0	2545	7	0
0	2729	7.5	0
0	2913	8	0
0	3097	8.5	0
0	3281	9	0
0	3465	9.5	0
0	3647	10	0
0	3685	10.5	0
1	2	0	0
1	153	0.5	13
1	337	1	18
1	521	1.5	18
1	705	2	18
1	889	2.5	18
1	1073	3	18
1	1257	3.5	18
1	1441	4	18
1	1625	4.5	18
1	1809	5	18
1	1993	5.5	18
1	2177	6	18
1	2361	6.5	18
1	2545	7	18
1	2729	7.5	18
1	2913	8	18
1	3097	8.5	18
1	3281	9	18
1	3465	9.5	18
1	3647	10	18
1	3685	10.5	5
2	3	0	0
2	154	0.5	0
2	338	1	0
2	522	1.5	0
2	706	2	0
2	890	2.5	0
2	1074	3	0
2	1258	3.5	0
2	1442	4	0
2	1626	4.5	0
2	1810	5	0
2	1994	5.5	0
2	2178	6	0
2	2362	6.5	0
2	2546	7	0
2	2730	7.5	0
2	2914	8	0
2	3098	8.5	0
2	3282	9	0
2	3466	9.5	0
2	3648	10	0
2	3686	10.5	0
3	3	0	0
3	154	0.5	26
3	338	1	36
3	522	1.5	36
3	706	2	36
3	890	2.5	36
3	1074	3	36
3	1258	3.5	36
3	1442	4	36
3	1626	4.5	36
3	1810	5	36
3	1994	5.5	36
3	2178	6	36
3	2362	6.5	36
3	2546	7	36
3	2730	7.5	36
3	2914	8	36
3	3098	8.5	36
3	3282	9	36
3	3466	9.5	36
3	3648	10	36
3	3686	10.5	10
4	4	0	0
4	155	0.5	0
4	339	1	0
4	523	1.5	0
4	707	2	0
4	891	2.5	0
4	1075	3	0
4	1259	3.5	0
4	1443	4	0
4	1627	4.5	0
4	1811	5	0
4	1995	5.5	0
4	2179	6	0
4	2363	6.5	0
4	2547	7	0
4	2731	7.5	0
4	2915	8	0
4	3099	8.5	0
4	3283	9	0
4	3467	9.5	0
4	3649	10	0
4	3687	10.5	0
5	4	0	0
5	155	0.5	26
5	339	1	36
5	523	1.5	36
5	707	2	36
5	891	2.5	36
5	1075	3	36
5	1259	3.5	36
5	1443	4	36
5	1627	4.5	36
5	1811	5	36
5	1995	5.5	36
5	2179	6	36
5	2363	6.5	36
5	2547	7	36
5	2731	7.5	36
5	2915	8	36
5	3099	8.5	36
5	3283	9	36
5	3467	9.5	36
5	3649	10	36
5	3687	10.5	10
6	6	0	0
6	156	0.5	0
6	340	1	0
6	524	1.5	0
6	708	2	0
6	892	2.5	0
6	1076	3	0
6	1260	3.5	0
6	1444	4	0
6	1628	4.5	0
6	1812	5	0
6	1996	5.5	0
6	2180	6	0
6	2364	6.5	0
6	2548	7	0
6	2732	7.5	0
6	2916	8	0
6	3100	8.5	0
6	3284	9	0
6	3468	9.5	0
6	3650	10	0
6	3688	10.5	0
7	6	0	0
7	156	0.5	13
7	340	1	18
7	524	1.5	18
7	708	2	18
7	892	2.5	18
7	1076	3	18
7	1260	3.5	18
7	1444	4	18
7	1628	4.5	18
7	1812	5	18
7	1996	5.5	18
7	2180	6	18
7	2364	6.5	18
7	2548	7	18
7	2732	7.5	18
7	2916	8	18
7	3100	8.5	18
7	3284	9	18
7	3468	9.5	18
7	3650	10	18
7	3688	10.5	5
8	38	0.18	0.18
8	58	0.235555555556	0.18
8	78	0.291111111111	0.18
8	98	0.346666666667	0.18
8	118	0.402222222222	0.18
8	138	0.457777777778	0.18
8	162	0.513333333333	0.18
8	182	0.568888888889	0.18
8	202	0.624444444444	0.18
8	222	0.68	0.18
8	242	0.735555555556	0.18
8	262	0.791111111111	0.18
8	282	0.846666666667	0.18
8	302	0.902222222222	0.18
8	322	0.957777777778	0.18
8	346	1.013333333333	0.18
8	366	1.068888888889	0.18
8	386	1.124444444444	0.18
8	406	1.18	0.18
8	426	1.23555555556	0.18
8	446	1.29111111111	0.18
8	466	1.34666666667	0.18
8	486	1.40222222222	0.18
8	506	1.45777777778	0.18
8	530	1.51333333333	0.18
8	550	1.56888888889	0.18
8	570	1.62444444444	0.18
8	590	1.68	0.18
8	610	1.73555555556	0.18
8	630	1.79111111111	0.18
8	650	1.84666666667	0.18
8	670	1.90222222222	0.18
8	690	1.95777777778	0.18
8	714	2.01333333333	0.18
8	734	2.06888888889	0.18
8	754	2.12444444444	0.18
8	774	2.18	0.18
8	794	2.23555555556	0.18
8	814	2.29111111111	0.18
8	834	2.34666666667	0.18
8	854	2.40222222222	0.18
8	874	2.45777777778	0.18
8	898	2.51333333333	0.18
8	918	2.56888888889	0.18
8	938	2.62444444444	0.18
8	958	2.68	0.18
8	978	2.73555555556	0.18
8	998	2.79111111111	0.18
8	1018	2.84666666667	0.18
8	1038	2.90222222222	0.18
8	1058	2.95777777778	0.18
8	1082	3.01333333333	0.18
8	1102	3.06888888889	0.18
8	1122	3.12444444444	0.18
8	1142	3.18	0.18
8	1162	3.23555555556	0.18
8	1182	3.29111111111	0.18
8	1202	3.34666666667	0.18
8	1222	3.40222222222	0.18
8	1242	3.45777777778	0.18
8	1266	3.51333333333	0.18
8	1286	3.56888888889	0.18
8	1306	3.62444444444	0.18
8	1326	3.68	0.18
8	1346	3.73555555556	0.18
8	1366	3.79111111111	0.18
8	1386	3.84666666667	0.18
8	1406	3.90222222222	0.18
8	1426	3.95777777778	0.18
8	1450	4.01333333333	0.18
8	1470	4.06888888889	0.18
8	1490	4.12444444444	0.18
8	1510	4.18	0.18
8	1530	4.23555555556	0.18
8	1550	4.29111111111	0.18
8	1570	4.34666666667	0.18
8	1590	4.40222222222	0.18
8	1610	4.45777777778	0.18
8	1634	4.51333333333	0.18
8	1654	4.56888888889	0.18
8	1674	4.62444444444	0.18
8	1694	4.68	0.18
8	1714	4.73555555556	0.18
8	1734	4.79111111111	0.18
8	1754	4.84666666667	0.18
8	1774	4.90222222222	0.18
8	1794	4.95777777778	0.18
8	1818	5.01333333333	0.18
8	1838	5.06888888889	0.18
8	1858	5.12444444444	0.18
8	1878	5.18	0.18
8	1898	5.23555555556	0.18
8	1918	5.29111111111	0.18
8	1938	5.34666666667	0.18
8	1958	5.40222222222	0.18
8	1978	5.45777777778	0.18
8	2002	5.51333333333	0.18
8	2022	5.56888888889	0.18
8	2042	5.62444444444	0.18
8	2062	5.68	0.18
8	2082	5.73555555556	0.18
8	2102	5.79111111111	0.18
8	2122	5.84666666667	0.18
8	2142	5.90222222222	0.18
8	2162	5.95777777778	0.18
8	2186	6.01333333333	0.18
8	2206	6.06888888889	0.18
8	2226	6.12444444444	0.18
8	2246	6.18	0.18
8	2266	6.23555555556	0.18
8	2286	6.29111111111	0.18
8	2306	6.34666666667	0.18
8	2326	6.40222222222	0.18
8	2346	6.45777777778	0.18
8	2370	6.51333333333	0.18
8	2390	6.56888888889	0.18
8	2410	6.62444444444	0.18
8	2430	6.68	0.18
8	2450	6.73555555556	0.18
8	2470	6.79111111111	0.18
8	2490	6.84666666667	0.18
8	2510	6.90222222222	0.18
8	2530	6.95777777778	0.18
8	2554	7.01333333333	0.18
8	2574	7.06888888889	0.18
8	2594	7.12444444444	0.18
8	2614	7.18	0.18
8	2634	7.23555555556	0.18
8	2654	7.29111111111	0.18
8	2674	7.34666666667	0.18
8	2694	7.40222222222	0.18
8	2714	7.45777777778	0.18
8	2738	7.51333333333	0.18
8	2758	7.56888888889	0.18
8	2778	7.62444444444	0.18
8	2798	7.68	0.18
8	2818	7.73555555556	0.18
8	2838	7.79111111111	0.18
8	2858	7.84666666667	0.18
8	2878	7.90222222222	0.18
8	2898	7.95777777778	0.18
8	2922	8.01333333333	0.18
8	2942	8.06888888889	0.18
8	2962	8.12444444444	0.18
8	2982	8.18	0.18
8	3002	8.23555555556	0.18
8	3022	8.29111111111	0.18
8	3042	8.34666666667	0.18
8	3062	8.40222222222	0.18
8	3082	8.45777777778	0.18
8	3106	8.51333333333	0.18
8	3126	8.56888888889	0.18
8	3146	8.62444444444	0.18
8	3166	8.68	0.18
8	3186	8.73555555556	0.18
8	3206	8.79111111111	0.18
8	3226	8.84666666667	0.18
8	3246	8.90222222222	0.18
8	3266	8.95777777778	0.18
8	3290	9.01333333333	0.18
8	3310	9.06888888889	0.18
8	3330	9.12444444444	0.18
8	3350	9.18	0.18
8	3370	9.23555555556	0.18
8	3390	9.29111111111	0.18
8	3410	9.34666666667	0.18
8	3430	9.40222222222	0.18
8	3450	9.45777777778	0.18
8	3474	9.51333333333	0.18
8	3494	9.56888888889	0.18
8	3514	9.62444444444	0.18
8	3534	9.68	0.18
8	3554	9.73555555556	0.18
8	3574	9.79111111111	0.18
8	3594	9.84666666667	0.18
8	3614	9.90222222222	0.18
8	3634	9.95777777778	0.18
8	3656	10.01333333333	0.18
8	3670	10.06888888889	0.18
8	3680	10.12444444444	0.18
9	40	0.18	0.18
9	60	0.235555555556	0.18
9	80	0.291111111111	0.18
9	100	0.346666666667	0.18
9	120	0.402222222222	0.18
9	140	0.457777777778	0.18
9	164	0.513333333333	0.18
9	184	0.568888888889	0.18
9	204	0.624444444444	0.18
9	224	0.68	0.18
9	244	0.735555555556	0.18
9	264	0.791111111111	0.18
9	284	0.846666666667	0.18
9	304	0.902222222222	0.18
9	324	0.957777777778	0.18
9	348	1.013333333333	0.18
9	368	1.068888888889	0.18
9	388	1.124444444444	0.18
9	408	1.18	0.18
9	428	1.23555555556	0.18
9	448	1.29111111111	0.18
9	468	1.34666666667	0.18
9	488	1.40222222222	0.18
9	508	1.45777777778	0.18
9	532	1.51333333333	0.18
9	552	1.56888888889	0.18
9	572	1.62444444444	0.18
9	592	1.68	0.18
9	612	1.73555555556	0.18
9	632	1.79111111111	0.18
9	652	1.84666666667	0.18
9	672	1.90222222222	0.18
9	692	1.95777777778	0.18
9	716	2.01333333333	0.18
9	736	2.06888888889	0.18
9	756	2.12444444444	0.18
9	776	2.18	0.18
9	796	2.23555555556	0.18
9	816	2.29111111111	0.18
9	836	2.34666666667	0.18
9	856	2.40222222222	0.18
9	876	2.45777777778	0.18
9	900	2.51333333333	0.18
9	920	2.56888888889	0.18
9	940	2.62444444444	0.18
9	960	2.68	0.18
9	980	2.73555555556	0.18
9	1000	2.79111111111	0.18
9	1020	2.84666666667	0.18
9	1040	2.90222222222	0.18
9	1060	2.95777777778	0.18
9	1084	3.01333333333	0.18
9	1104	3.06888888889	0.18
9	1124	3.12444444444	0.18
9	1144	3.18	0.18
9	1164	3.23555555556	0.18
9	1184	3.29111111111	0.18
9	1204	3.34666666667	0.18
9	1224	3.40222222222	0.18
9	1244	3.45777777778	0.18
9	1268	3.51333333333	0.18
9	1288	3.56888888889	0.18
9	1308	3.62444444444	0.18
9	1328	3.68	0.18
9	1348	3.73555555556	0.18
9	1368	3.79111111111	0.18
9	1388	3.84666666667	0.18
9	1408	3.90222222222	0.18
9	1428	3.95777777778	0.18
9	1452	4.01333333333	0.18
9	1472	4.06888888889	0.18
9	1492	4.12444444444	0.18
9	1512	4.18	0.18
9	1532	4.23555555556	0.18
9	1552	4.29111111111	0.18
9	1572	4.34666666667	0.18
9	1592	4.40222222222	0.18
9	1612	4.45777777778	0.18
9	1636	4.51333333333	0.18
9	1656	4.56888888889	0.18
9	1676	4.62444444444	0.18
9	1696	4.68	0.18
9	1716	4.73555555556	0.18
9	1736	4.79111111111	0.18
9	1756	4.84666666667	0.18
9	1776	4.90222222222	0.18
9	1796	4.95777777778	0.18
9	1820	5.01333333333	0.18
9	1840	5.06888888889	0.18
9	1860	5.12444444444	0.18
9	1880	5.18	0.18
9	1900	5.23555555556	0.18
9	1920	5.29111111111	0.18
9	1940	5.34666666667	0.18
9	1960	5.40222222222	0.18
9	1980	5.45777777778	0.18
9	2004	5.51333333333	0.18
9	2024	5.56888888889	0.18
9	2044	5.62444444444	0.18
9	2064	5.68	0.18
9	2084	5.73555555556	0.18
9	2104	5.79111111111	0.18
9	2124	5.84666666667	0.18
9	2144	5.90222222222	0.18
9	2164	5.95777777778	0.18
9	2188	6.01333333333	0.18
9	2208	6.06888888889	0.18
9	2228	6.12444444444	0.18
9	2248	6.18	0.18
9	2268	6.23555555556	0.18
9	2288	6.29111111111	0.18
9	2308	6.34666666667	0.18
9	2328	6.40222222222	0.18
9	2348	6.45777777778	0.18
9	2372	6.51333333333	0.18
9	2392	6.56888888889	0.18
9	2412	6.62444444444	0.18
9	2432	6.68	0.18
9	2452	6.73555555556	0.18
9	2472	6.79111111111	0.18
9	2492	6.84666666667	0.18
9	2512	6.90222222222	0.18
9	2532	6.95777777778	0.18
9	2556	7.01333333333	0.18
9	2576	7.06888888889	0.18
9	2596	7.12444444444	0.18
9	2616	7.18	0.18
9	2636	7.23555555556	0.18
9	2656	7.29111111111	0.18
9	2676	7.34666666667	0.18
9	2696	7.40222222222	0.18
9	2716	7.45777777778	0.18
9	2740	7.51333333333	0.18
9	2760	7.56888888889	0.18
9	2780	7.62444444444	0.18
9	2800	7.68	0.18
9	2820	7.73555555556	0.18
9	2840	7.79111111111	0.18
9	2860	7.84666666667	0.18
9	2880	7.90222222222	0.18
9	2900	7.95777777778	0.18
9	2924	8.01333333333	0.18
9	2944	8.06888888889	0.18
9	2964	8.12444444444	0.18
9	2984	8.18	0.18
9	3004	8.23555555556	0.18
9	3024	8.29111111111	0.18
9	3044	8.34666666667	0.18
9	3064	8.40222222222	0.18
9	3084	8.45777777778	0.18
9	3108	8.51333333333	0.18
9	3128	8.56888888889	0.18
9	3148	8.62444444444	0.18
9	3168	8.68	0.18
9	3188	8.73555555556	0.18
9	3208	8.79111111111	0.18
9	3228	8.84666666667	0.18
9	3248	8.90222222222	0.18
9	3268	8.95777777778	0.18
9	3292	9.01333333333	0.18
9	3312	9.06888888889	0.18
9	3332	9.12444444444	0.18
9	3352	9.18	0.18
9	3372	9.23555555556	0.18
9	3392	9.29111111111	0.18
9	3412	9.34666666667	0.18
9	3432	9.40222222222	0.18
9	3452	9.45777777778	0.18
9	3476	9.51333333333	0.18
9	3496	9.56888888889	0.18
9	3516	9.62444444444	0.18
9	3536	9.68	0.18
9	3556	9.73555555556	0.18
9	3576	9.79111111111	0.18
9	3596	9.84666666667	0.18
9	3616	9.90222222222	0.18
9	3636	9.95777777778	0.18
9	3658	10.01333333333	0.18
9	3672	10.06888888889	0.18
9	3682	10.12444444444	0.18

