version 2
run simpleNet-0-20181107-06:25:39-31632
attr configname simpleNet
attr datetime 20181107-06:25:39
attr experiment simpleNet
attr inifile omnetpp.ini
attr iterationvars ""
attr iterationvarsf ""
attr measurement ""
attr network simpleNet
attr processid 31632
attr repetition 0
attr replication #0
attr resultdir results
attr runnumber 0
attr seedset 0

vector 0 simpleNet.node[0] numInQueue:vector ETV
attr interpolationmode none
attr source numInQueue
attr title "total num in queue, vector"
vector 1 simpleNet.node[0] numProcessed:vector ETV
attr interpolationmode none
attr source numProcessed
attr title "num processed in statRate time, vector"
vector 2 simpleNet.node[1] numInQueue:vector ETV
attr interpolationmode none
attr source numInQueue
attr title "total num in queue, vector"
vector 3 simpleNet.node[1] numProcessed:vector ETV
attr interpolationmode none
attr source numProcessed
attr title "num processed in statRate time, vector"
vector 4 simpleNet.node[2] numInQueue:vector ETV
attr interpolationmode none
attr source numInQueue
attr title "total num in queue, vector"
vector 5 simpleNet.node[2] numProcessed:vector ETV
attr interpolationmode none
attr source numProcessed
attr title "num processed in statRate time, vector"
vector 6 simpleNet.node[3] numInQueue:vector ETV
attr interpolationmode none
attr source numInQueue
attr title "total num in queue, vector"
vector 7 simpleNet.node[3] numProcessed:vector ETV
attr interpolationmode none
attr source numProcessed
attr title "num processed in statRate time, vector"
vector 8 simpleNet.node[0] completionTime:vector ETV
attr interpolationmode none
attr source completionTime
attr title "completionTime, vector"
vector 9 simpleNet.node[3] completionTime:vector ETV
attr interpolationmode none
attr source completionTime
attr title "completionTime, vector"
0	2	0	0
0	1557	0.5	0
0	3717	1	0
0	5504	1.5	0
0	7502	2	0
0	9544	2.5	0
0	11169	3	0
0	13485	3.5	0
0	15786	4	0
0	17814	4.5	0
0	19805	5	0
0	21841	5.5	0
0	23483	6	0
0	25464	6.5	0
0	27439	7	0
0	29493	7.5	0
0	31282	8	0
0	33124	8.5	0
0	35169	9	0
0	37333	9.5	0
0	39153	10	0
0	39815	10.5	0
1	2	0	0
1	1557	0.5	134
1	3717	1	215
1	5504	1.5	185
1	7502	2	185
1	9544	2.5	216
1	11169	3	157
1	13485	3.5	225
1	15786	4	227
1	17814	4.5	215
1	19805	5	197
1	21841	5.5	205
1	23483	6	158
1	25464	6.5	193
1	27439	7	199
1	29493	7.5	209
1	31282	8	175
1	33124	8.5	176
1	35169	9	209
1	37333	9.5	218
1	39153	10	181
1	39815	10.5	89
2	3	0	0
2	1558	0.5	0
2	3718	1	0
2	5505	1.5	1
2	7503	2	1
2	9545	2.5	21
2	11170	3	37
2	13486	3.5	26
2	15787	4	16
2	17815	4.5	17
2	19806	5	9
2	21842	5.5	7
2	23484	6	31
2	25465	6.5	45
2	27440	7	39
2	29494	7.5	43
2	31283	8	55
2	33125	8.5	67
2	35170	9	43
2	37334	9.5	33
2	39154	10	56
2	39816	10.5	25
3	3	0	0
3	1558	0.5	271
3	3718	1	431
3	5505	1.5	360
3	7503	2	388
3	9545	2.5	416
3	11170	3	313
3	13486	3.5	455
3	15787	4	461
3	17815	4.5	417
3	19806	5	398
3	21842	5.5	411
3	23484	6	315
3	25465	6.5	389
3	27440	7	396
3	29494	7.5	409
3	31283	8	357
3	33125	8.5	364
3	35170	9	409
3	37334	9.5	438
3	39154	10	361
3	39816	10.5	177
4	4	0	0
4	1559	0.5	0
4	3719	1	0
4	5506	1.5	0
4	7504	2	0
4	9546	2.5	0
4	11171	3	0
4	13487	3.5	0
4	15788	4	0
4	17816	4.5	0
4	19807	5	0
4	21843	5.5	0
4	23485	6	0
4	25466	6.5	0
4	27441	7	0
4	29495	7.5	0
4	31284	8	0
4	33126	8.5	0
4	35171	9	0
4	37335	9.5	0
4	39155	10	0
4	39817	10.5	0
5	4	0	0
5	1559	0.5	266
5	3719	1	439
5	5506	1.5	363
5	7504	2	380
5	9546	2.5	418
5	11171	3	310
5	13487	3.5	463
5	15788	4	452
5	17816	4.5	424
5	19807	5	393
5	21843	5.5	417
5	23485	6	313
5	25466	6.5	391
5	27441	7	390
5	29495	7.5	420
5	31284	8	349
5	33126	8.5	361
5	35171	9	411
5	37335	9.5	440
5	39155	10	356
5	39817	10.5	180
6	6	0	0
6	1560	0.5	0
6	3720	1	0
6	5507	1.5	0
6	7505	2	0
6	9547	2.5	0
6	11172	3	0
6	13488	3.5	0
6	15789	4	0
6	17817	4.5	0
6	19808	5	0
6	21844	5.5	0
6	23486	6	0
6	25467	6.5	0
6	27442	7	0
6	29496	7.5	0
6	31285	8	0
6	33127	8.5	0
6	35172	9	0
6	37336	9.5	0
6	39156	10	0
6	39818	10.5	0
7	6	0	0
7	1560	0.5	133
7	3720	1	218
7	5507	1.5	178
7	7505	2	198
7	9547	2.5	205
7	11172	3	153
7	13488	3.5	239
7	15789	4	225
7	17817	4.5	206
7	19808	5	197
7	21844	5.5	209
7	23486	6	154
7	25467	6.5	196
7	27442	7	199
7	29496	7.5	207
7	31285	8	176
7	33127	8.5	184
7	35172	9	203
7	37336	9.5	219
7	39156	10	179
7	39818	10.5	90
8	252	0.18	0.18
8	261	0.183432237178	0.18
8	323	0.200770046143	0.18
8	337	0.204057907868	0.18
8	348	0.209913334839	0.18
8	366	0.216021524018	0.18
8	394	0.22267547471	0.18
8	465	0.238441374145	0.18
8	475	0.243780965825	0.18
8	503	0.249746777248	0.18
8	514	0.251377907656	0.18
8	542	0.257628145302	0.18
8	546	0.258618994032	0.18
8	548	0.259001646738	0.18
8	566	0.262412590803	0.18
8	573	0.263516143137	0.18
8	579	0.266123713142	0.18
8	606	0.273876273016	0.18
8	609	0.27410690642	0.18
8	623	0.278359650711	0.18
8	637	0.281206215438	0.18
8	644	0.281976088161	0.18
8	679	0.289337697732	0.18
8	701	0.296266381432	0.18
8	705	0.297014858328	0.18
8	721	0.301439182448	0.18
8	762	0.311353671607	0.18
8	765	0.311684538815	0.18
8	783	0.315195580341	0.18
8	854	0.335713540269	0.18
8	862	0.337157959924	0.18
8	869	0.338947860763	0.18
8	874	0.33944008318	0.18
8	888	0.343329895677	0.18
8	915	0.347881228785	0.18
8	956	0.361175160143	0.18
8	1011	0.374337422965	0.18
8	1092	0.39403795255	0.18
8	1108	0.397490357995	0.18
8	1111	0.398469212311	0.18
8	1115	0.398764535329	0.18
8	1133	0.403772093599	0.18
8	1141	0.405644990476	0.18
8	1143	0.405983736819	0.18
8	1162	0.410940486507	0.18
8	1164	0.411506947097	0.18
8	1171	0.413099112634	0.18
8	1220	0.423549829774	0.18
8	1237	0.426842695989	0.18
8	1247	0.428642442199	0.18
8	1269	0.433290222239	0.18
8	1272	0.433952448548	0.18
8	1284	0.437547840141	0.18
8	1324	0.448591217648	0.18
8	1333	0.449851914661	0.18
8	1366	0.455508716061	0.18
8	1368	0.45566427788	0.18
8	1403	0.46498131621	0.18
8	1435	0.4734488566	0.18
8	1482	0.483119474167	0.18
8	1486	0.484222969654	0.18
8	1569	0.501514551431	0.18
8	1573	0.503282778933	0.18
8	1596	0.509355449785	0.18
8	1664	0.521703681564	0.18
8	1679	0.526510724418	0.18
8	1691	0.528633161571	0.18
8	1700	0.530225152778	0.18
8	1713	0.534022929158	0.18
8	1719	0.534554217378	0.18
8	1768	0.545341875042	0.18
8	1770	0.545963755081	0.18
8	1805	0.551797458331	0.18
8	1811	0.552611435618	0.18
8	1837	0.559634300458	0.18
8	1909	0.575177274167	0.18
8	1955	0.586608967263	0.18
8	1971	0.589535546167	0.18
8	1978	0.59055425568	0.18
8	1981	0.590722479381	0.18
8	1986	0.592131839218	0.18
8	2014	0.599950982743	0.18
8	2039	0.604315449142	0.18
8	2042	0.605170759177	0.18
8	2062	0.60913943615	0.18
8	2094	0.618518783032	0.18
8	2101	0.619161752221	0.18
8	2227	0.647722151835	0.18
8	2229	0.648441104115	0.18
8	2236	0.648900117897	0.18
8	2242	0.650173735866	0.18
8	2268	0.657240614289	0.18
8	2322	0.667591221385	0.18
8	2324	0.667591498737	0.18
8	2344	0.67111068099	0.18
8	2350	0.671611316605	0.18
8	2352	0.671798058648	0.18
8	2358	0.67298728289	0.18
8	2364	0.675675496971	0.18
8	2420	0.688416339301	0.18
8	2426	0.689718331675	0.18
8	2436	0.691078383155	0.18
8	2439	0.691957613558	0.18
8	2452	0.694561753776	0.18
8	2460	0.696240212026	0.18
8	2487	0.700242453154	0.18
8	2493	0.701349472292	0.18
8	2495	0.701401114684	0.18
8	2521	0.707675270601	0.18
8	2535	0.710831185662	0.18
8	2555	0.715582229172	0.18
8	2561	0.717261733808	0.18
8	2587	0.723041083452	0.18
8	2592	0.723943474687	0.18
8	2609	0.727448225866	0.18
8	2611	0.728043313072	0.18
8	2613	0.728126448032	0.18
8	2639	0.732605421522	0.18
8	2667	0.740233660713	0.18
8	2684	0.744350558477	0.18
8	2693	0.745849239167	0.18
8	2702	0.748248437764	0.18
8	2743	0.758450598929	0.18
8	2800	0.772126055361	0.18
8	2831	0.779604694284	0.18
8	2879	0.793895577916	0.18
8	2888	0.796046876321	0.18
8	2933	0.805325473029	0.18
8	2972	0.816441040102	0.18
8	3045	0.831182175106	0.18
8	3052	0.83263651928	0.18
8	3064	0.837041862106	0.18
8	3068	0.837915002746	0.18
8	3092	0.845057677209	0.18
8	3100	0.846013820077	0.18
8	3112	0.848272805604	0.18
8	3137	0.852338122671	0.18
8	3153	0.856516333094	0.18
8	3165	0.859096187993	0.18
8	3198	0.867804585139	0.18
8	3210	0.868717811489	0.18
8	3229	0.874576645276	0.18
8	3241	0.876662459624	0.18
8	3254	0.879118912762	0.18
8	3259	0.879393189521	0.18
8	3294	0.887902804702	0.18
8	3304	0.891873341719	0.18
8	3312	0.8934221083	0.18
8	3314	0.894507858936	0.18
8	3331	0.898372868234	0.18
8	3346	0.900878298422	0.18
8	3378	0.909299137231	0.18
8	3392	0.911527204176	0.18
8	3410	0.917308677188	0.18
8	3412	0.917504338142	0.18
8	3435	0.925161672053	0.18
8	3469	0.935990307481	0.18
8	3479	0.937898665241	0.18
8	3491	0.940439448948	0.18
8	3502	0.942658469993	0.18
8	3510	0.945242697426	0.18
8	3514	0.945715384555	0.18
8	3520	0.947219522543	0.18
8	3530	0.951911441075	0.18
8	3607	0.970818156287	0.18
8	3665	0.989279951007	0.18
8	3684	0.993617362027	0.18
8	3692	0.995999460194	0.18
8	3702	0.997603703597	0.18
8	3745	1.010285763702	0.18
8	3780	1.017940445094	0.18
8	3803	1.022628465371	0.18
8	3813	1.024967306349	0.18
8	3819	1.026663035389	0.18
8	3828	1.028630728286	0.18
8	3843	1.033295124748	0.18
8	3846	1.034105359806	0.18
8	3856	1.035751100298	0.18
8	3863	1.039068450782	0.18
8	3871	1.042486345622	0.18
8	3873	1.04249599337	0.18
8	3885	1.0450945713	0.18
8	3887	1.045463373761	0.18
8	3902	1.048003261688	0.18
8	3904	1.048113720741	0.18
8	3938	1.056677092402	0.18
8	3955	1.05969078309	0.18
8	3973	1.065235966783	0.18
8	3993	1.073259662096	0.18
8	4024	1.080843034863	0.18
8	4049	1.086822253552	0.18
8	4076	1.094578235652	0.18
8	4082	1.095595565681	0.18
8	4106	1.103504557798	0.18
8	4163	1.119177560769	0.18
8	4167	1.119625007363	0.18
8	4189	1.126645599484	0.18
8	4193	1.126872855296	0.18
8	4208	1.133144526342	0.18
8	4237	1.140213360129	0.18
8	4256	1.143638882192	0.18
8	4260	1.144522845533	0.18
8	4274	1.149472787418	0.18
8	4277	1.149811606346	0.18
8	4279	1.14985429484	0.18
8	4329	1.166345276148	0.18
8	4331	1.166437244476	0.18
8	4382	1.18	0.18
8	4414	1.191987226	0.18
8	4431	1.19595500676	0.18
8	4481	1.20858147745	0.18
8	4492	1.214805187	0.18
8	4507	1.21781065328	0.18
8	4524	1.22310930225	0.18
8	4529	1.22370278061	0.18
8	4548	1.23006882753	0.18
8	4584	1.23708828939	0.18
8	4597	1.241159133	0.18
8	4602	1.24490525067	0.18
8	4648	1.25548122701	0.18
8	4674	1.26328948712	0.18
8	4685	1.2651854331	0.18
8	4722	1.27575217023	0.18
8	4725	1.27634926656	0.18
8	4731	1.2770304992	0.18
8	4742	1.28073208065	0.18
8	4750	1.28274452575	0.18
8	4753	1.28299568083	0.18
8	4758	1.28357670592	0.18
8	4809	1.29661843197	0.18
8	4813	1.29728067433	0.18
8	4831	1.30519229923	0.18
8	4841	1.30700226156	0.18
8	4844	1.30772024905	0.18
8	4858	1.31267142015	0.18
8	4876	1.31699215491	0.18
8	4880	1.3197821191	0.18
8	4883	1.31987934357	0.18
8	4886	1.32135773247	0.18
8	4895	1.32302524702	0.18
8	4904	1.32426018945	0.18
8	4925	1.32864964584	0.18
8	4933	1.33187795057	0.18
8	4942	1.3355632627	0.18
8	4996	1.35278671332	0.18
8	5008	1.3544285174	0.18
8	5017	1.35625765009	0.18
8	5040	1.36508243975	0.18
8	5047	1.36687379502	0.18
8	5052	1.36783968184	0.18
8	5057	1.36848048051	0.18
8	5063	1.37153543042	0.18
8	5081	1.37615711805	0.18
8	5086	1.3767064875	0.18
8	5094	1.38008729802	0.18
8	5195	1.40769996294	0.18
8	5198	1.40979485743	0.18
8	5208	1.41345296793	0.18
8	5217	1.41579890602	0.18
8	5220	1.41652744443	0.18
8	5231	1.41887107352	0.18
8	5233	1.41894526246	0.18
8	5259	1.42592370893	0.18
8	5284	1.43249876881	0.18
8	5295	1.43540312775	0.18
8	5330	1.44703678484	0.18
8	5333	1.44731635773	0.18
8	5335	1.44738912006	0.18
8	5371	1.45667050823	0.18
8	5380	1.45872832716	0.18
8	5414	1.47253157904	0.18
8	5421	1.47382793184	0.18
8	5468	1.48774088152	0.18
8	5477	1.48893548866	0.18
8	5541	1.51205465192	0.18
8	5598	1.52655699388	0.18
8	5619	1.536188978	0.18
8	5629	1.54067887104	0.18
8	5659	1.54709610459	0.18
8	5661	1.54756446001	0.18
8	5668	1.54883022207	0.18
8	5681	1.55282840263	0.18
8	5730	1.56914462647	0.18
8	5753	1.57492681179	0.18
8	5763	1.5762446224	0.18
8	5765	1.57640323913	0.18
8	5782	1.58034263995	0.18
8	5784	1.58104671702	0.18
8	5797	1.58427194596	0.18
8	5824	1.59286902746	0.18
8	5841	1.59723245798	0.18
8	5850	1.59989058652	0.18
8	5873	1.60486334037	0.18
8	5877	1.60546873231	0.18
8	5893	1.60878267913	0.18
8	5901	1.6111395797	0.18
8	5946	1.62333724025	0.18
8	5949	1.62378194643	0.18
8	5952	1.62475799036	0.18
8	5967	1.62798286982	0.18
8	5990	1.63358101208	0.18
8	6017	1.64137715905	0.18
8	6024	1.64365938602	0.18
8	6054	1.65217081069	0.18769957706
8	6091	1.66092114957	0.18
8	6105	1.66394202555	0.18
8	6136	1.67204596329	0.18
8	6185	1.68529915539	0.18
8	6236	1.69798115767	0.18
8	6327	1.72131966697	0.18
8	6349	1.72615640037	0.18
8	6369	1.73119083196	0.18
8	6382	1.73474705996	0.18
8	6429	1.74562217323	0.18
8	6462	1.75345752791	0.18
8	6511	1.764849065	0.18
8	6513	1.76505831124	0.18
8	6538	1.77056680662	0.18
8	6561	1.77655171969	0.18
8	6563	1.77676603562	0.18
8	6578	1.78110620657	0.18
8	6613	1.78883364488	0.18
8	6660	1.80013222742	0.18
8	6692	1.80765675187	0.18
8	6716	1.81421059414	0.18
8	6730	1.81648550476	0.18
8	6769	1.82661563951	0.18
8	6790	1.83301116082	0.18
8	6793	1.83343765734	0.18
8	6795	1.83348924147	0.18
8	6806	1.8350589478	0.18
8	6824	1.8387213941	0.18
8	6830	1.84150689367	0.18
8	6842	1.84401480774	0.18
8	6844	1.84415039542	0.18
8	6852	1.84527403353	0.18
8	6879	1.85099937244	0.18
8	6901	1.85705204061	0.18
8	6935	1.86560176613	0.18
8	6942	1.8669110499	0.18
8	6976	1.87505742673	0.18
8	6986	1.8761513731	0.18
8	6988	1.87633714354	0.18
8	7014	1.88201632819	0.18
8	7034	1.88743841165	0.18
8	7048	1.89243982812	0.18
8	7052	1.89302847062	0.18
8	7094	1.9021987893	0.18
8	7109	1.90511140793	0.18
8	7114	1.90614927367	0.18
8	7120	1.9078062657	0.18
8	7124	1.90861534894	0.18
8	7134	1.91156023098	0.18
8	7269	1.94582642097	0.18
8	7297	1.95357501265	0.18
8	7346	1.96361727779	0.18
8	7351	1.96473891256	0.18
8	7382	1.97307353997	0.18
8	7393	1.97590372501	0.18
8	7413	1.98275478389	0.18
8	7467	1.99239785631	0.18
8	7518	2.00193919872	0.18
8	7530	2.0057142084	0.18
8	7539	2.00925289214	0.18
8	7559	2.01387327293	0.18
8	7561	2.01398517498	0.18
8	7563	2.01417662827	0.18
8	7566	2.01455217106	0.18
8	7568	2.01462745112	0.18
8	7584	2.01722220113	0.18
8	7597	2.01892016272	0.18
8	7614	2.02211484746	0.18
8	7633	2.02452022569	0.18
8	7636	2.02553708541	0.18
8	7641	2.02715675615	0.18
8	7643	2.0279917624	0.18
8	7660	2.03109835871	0.18
8	7698	2.04120111862	0.18
8	7724	2.04603577031	0.18
8	7748	2.04920539252	0.18
8	7759	2.05114227586	0.18
8	7762	2.05147658218	0.18
8	7833	2.06844181878	0.18
8	7848	2.07242313759	0.18
8	7854	2.0733343193	0.18
8	7861	2.07573956404	0.18
8	7867	2.07672483632	0.18
8	7882	2.07912290555	0.18
8	7901	2.08220455269	0.18
8	7912	2.08340876823	0.18
8	7935	2.09032225843	0.18
8	7939	2.09072631113	0.18
8	7982	2.10069414086	0.18
8	8014	2.1099242143	0.18
8	8029	2.11232389256	0.18
8	8068	2.12111250125	0.18
8	8074	2.12155036495	0.18
8	8091	2.12589888559	0.18365456355
8	8110	2.13065531581	0.18813546805
8	8122	2.13486965199	0.1919243946
8	8154	2.14251562613	0.19074383357
8	8206	2.15451175591	0.18795998187
8	8241	2.16427231347	0.18
8	8257	2.16832301778	0.18
8	8264	2.16998288565	0.18
8	8301	2.18	0.18
8	8307	2.18034866187	0.18
8	8312	2.18077659095	0.18
8	8353	2.19252802564	0.18460478599
8	8362	2.19546516353	0.18459993223
8	8376	2.19806249531	0.18278203503
8	8380	2.19882612672	0.18313452153
8	8389	2.20112502868	0.18528703083
8	8406	2.20569063605	0.18
8	8414	2.20802222292	0.18207480785
8	8426	2.21036282877	0.18
8	8435	2.21337539495	0.18
8	8437	2.21428339598	0.18
8	8483	2.22553455813	0.18
8	8538	2.23887145957	0.18
8	8562	2.24568624125	0.18
8	8570	2.24701708461	0.18
8	8575	2.2483943717	0.18
8	8582	2.2493416824	0.18
8	8611	2.25768809883	0.18
8	8626	2.26089097651	0.18
8	8637	2.26273839038	0.18
8	8659	2.26783085173	0.18
8	8697	2.27660514783	0.18
8	8714	2.28060197743	0.18
8	8726	2.28310457935	0.18
8	8730	2.28495093993	0.18
8	8739	2.28733956538	0.18
8	8762	2.29195708276	0.18
8	8764	2.29203050637	0.18
8	8769	2.2932569168	0.18
8	8771	2.29347319099	0.18
8	8779	2.29529860385	0.18
8	8806	2.30336081005	0.18
8	8808	2.3044949791	0.18
8	8819	2.30601174582	0.18
8	8827	2.30792913305	0.18
8	8894	2.32462611982	0.18
8	8909	2.3290672287	0.18
8	8914	2.33059489799	0.18
8	8977	2.3478165319	0.18
8	8979	2.34787048125	0.18
8	9003	2.35370350611	0.18
8	9012	2.35638596569	0.18
8	9070	2.37255579629	0.18
8	9078	2.37593495798	0.18021898597
8	9106	2.38129850781	0.18383530292
8	9123	2.3875382539	0.18
8	9137	2.39092911044	0.18
8	9158	2.39541522836	0.18
8	9177	2.40036694107	0.18484622205
8	9219	2.41065628932	0.19343825072
8	9227	2.41249555903	0.19517869902
8	9233	2.41501167261	0.19287826666
8	9244	2.41937288128	0.19596652114
8	9254	2.42151037916	0.19659185573
8	9294	2.42928565347	0.20202660387
8	9305	2.43225256939	0.19665292323
8	9326	2.43865330015	0.2024603148
8	9364	2.45089352241	0.19545706276
8	9375	2.45459069989	0.19489901891
8	9377	2.45459339814	0.19278603693
8	9381	2.45505329281	0.18975988979
8	9387	2.45616083269	0.18907099861
8	9389	2.45648105124	0.18692289306
8	9396	2.45898707951	0.18763727236
8	9406	2.46169524551	0.18953622875
8	9422	2.46718288606	0.18717554928
8	9501	2.48916625949	0.20769725324
8	9509	2.49189231541	0.20883374004
8	9530	2.49774760451	0.2141375862
8	9536	2.49925887761	0.21432737215
8	9571	2.50769392773	0.21850256524
8	9578	2.51013122052	0.21234339868
8	9588	2.51463081245	0.21384370136
8	9602	2.51910238903	0.20782833416
8	9634	2.52929670735	0.21396835693
8	9643	2.53073190965	0.21000453595
8	9718	2.55527075404	0.23020125701
8	9721	2.55561791229	0.22091428314
8	9759	2.56670232298	0.22868468315
8	9789	2.5757228754	0.22778819811
8	9815	2.58526277932	0.23654806597
8	9829	2.58877683186	0.23827003031
8	9834	2.58993202737	0.23635010781
8	9872	2.60210394593	0.24636347658
8	9888	2.60726574361	0.2495375484
8	9898	2.61082036397	0.25235381402
8	9901	2.61189607889	0.24789174218
8	9913	2.61751376551	0.24757465959
8	9916	2.617876511	0.24723710211
8	9928	2.62049139638	0.24570338452
8	9970	2.63129182539	0.25235448456
8	9992	2.63900149995	0.2598166833
8	10024	2.6498408987	0.26511353513
8	10037	2.65394085918	0.26852168026
8	10043	2.65568246938	0.26255448878
8	10045	2.65606015338	0.26187438252
8	10053	2.65757901428	0.26277011558
8	10088	2.66535480603	0.27033575259
8	10105	2.67200077886	0.27680176339
8	10108	2.67232280551	0.27636492644
8	10122	2.67944168875	0.28231420666
8	10162	2.68992882782	0.28737383454
8	10178	2.69531753427	0.29167369084
8	10185	2.69827442579	0.28704943229
8	10249	2.71937638801	0.30632516497
8	10260	2.72239088342	0.30585738537
8	10262	2.72241233989	0.30270173057
8	10273	2.72820933529	0.30448721277
8	10287	2.73477034318	0.30709815006
8	10297	2.73861533433	0.30234306635
8	10306	2.74136034188	0.2950029211
8	10308	2.74183768032	0.29481463826
8	10316	2.74447660602	0.29673674233
8	10391	2.77112534053	0.3034982774
8	10435	2.7827733906	0.30463065754
8	10441	2.78459634707	0.30202339393
8	10460	2.79260203426	0.30539358613
8	10505	2.80760486493	0.31800249977
8	10539	2.81924181184	0.32676038976
8	10549	2.82174766325	0.3247079231
8	10555	2.82360938569	0.31832767942
8	10559	2.82485229814	0.30350499773
8	10570	2.83069785462	0.30531030383
8	10581	2.83400454808	0.30217430523
8	10597	2.83757079478	0.30341658627
8	10605	2.83938552672	0.3049499015
8	10701	2.86949637468	0.33443740508
8	10712	2.87279144418	0.32840276166
8	10751	2.88760637986	0.34259007644
8	10754	2.88821000461	0.34051731563
8	10764	2.89103466879	0.3378679698
8	10785	2.89606161762	0.34035135269
8	10792	2.89702515542	0.33286925239
8	10802	2.89931445288	0.32996543613
8	10805	2.89967483079	0.32387164083
8	10831	2.90810259661	0.31842075207
8	10859	2.91709530253	0.30651784462
8	10911	2.92857984049	0.3097082745
8	10913	2.9287192169	0.30736265787
8	10917	2.93104134322	0.30904022637
8	10930	2.93429433049	0.30733034501
8	10999	2.95417114003	0.3265798849
8	11013	2.9570176764	0.32584622786
8	11050	2.96839740376	0.33499156716
8	11056	2.97034073765	0.33639755062
8	11107	2.98324094451	0.34624317271
8	11166	2.99960253118	0.36039924244
8	11242	3.01671360681	0.37457450813
8	11274	3.02828310654	0.3686296795
8	11317	3.03884741925	0.376950381
8	11331	3.04204662457	0.37914992804
8	11338	3.0423992128	0.37858580111
8	11376	3.05449851674	0.39064883823
8	11395	3.06096485332	0.39423122686
8	11458	3.0735134221	0.39916965339
8	11473	3.07656059382	0.39689112549
8	11479	3.07807469658	0.39534736246
8	11519	3.09128788304	0.40590577479
8	11537	3.09391615917	0.38556797134
8	11548	3.09645005469	0.37745120713
8	11555	3.09888478291	0.37838136939
8	11560	3.09945647282	0.36865632683
8	11595	3.10585371237	0.37128889996
8	11613	3.11115970761	0.37017715129
8	11615	3.11244270348	0.36221570198
8	11618	3.11257837566	0.35542849357
8	11631	3.11601690356	0.34460652091
8	11654	3.12262675172	0.34770869343
8	11698	3.13087864108	0.35281819576
8	11713	3.13507836529	0.34399134525
8	11755	3.14587377028	0.34155843608
8	11764	3.14757727677	0.34215693348
8	11788	3.15317044102	0.34568811161
8	11793	3.15473264416	0.34230127927
8	11809	3.15647611345	0.34075111399
8	11821	3.16026422876	0.34322079602
8	11824	3.16084230138	0.33934184837
8	11837	3.16242859592	0.33892299204
8	11862	3.16854555973	0.32484907555
8	11869	3.17298779769	0.32414595649
8	11874	3.17396120862	0.32100906296
8	11928	3.18600924818	0.32878438406
8	11941	3.18811951739	0.32327321402
8	11970	3.19294906546	0.32402843725
8	12009	3.2056914525	0.33521116196
8	12029	3.20956826764	0.33873225294
8	12061	3.21599392537	0.34387928073
8	12092	3.22175570365	0.34851936105
8	12095	3.22207976701	0.34486223578
8	12097	3.22208306574	0.3337634599
8	12115	3.2254264374	0.3339973107
8	12118	3.22582036639	0.32470450821
8	12167	3.23904593561	0.3362136635
8	12191	3.24311303755	0.33866225778
8	12206	3.24606972695	0.33716067042
8	12239	3.2523640874	0.3397664459
8	12252	3.25505524316	0.33937070403
8	12254	3.25522220559	0.33556327549
8	12275	3.25813388577	0.33047046237
8	12291	3.26370982501	0.32760671757
8	12326	3.27252244976	0.33095366902
8	12330	3.27323235875	0.32266346722
8	12365	3.28003326639	0.32500761921
8	12442	3.29616568172	0.33779591946
8	12494	3.30592660092	0.34562089705
8	12497	3.30612487291	0.3456896427
8	12549	3.317151568	0.35310284623
8	12608	3.33	0.36194287607
8	12614	3.33122327311	0.36289623432
8	12620	3.33209799166	0.35882533588
8	12643	3.33589355508	0.35893007063
8	12673	3.3410297636	0.3553536928
8	12756	3.35886160752	0.36823422121
8	12770	3.36187963717	0.36707707217
8	12773	3.36210270992	0.36687117904
8	12799	3.36702335819	0.37119963202
8	12812	3.36892928831	0.37264217857
8	12863	3.37793603963	0.37793603963
8	12907	3.38772596491	0.38716004878
8	12916	3.389145258	0.38400825751
8	12931	3.39227915195	0.38438714422
8	12972	3.39925161373	0.38581367798
8	12975	3.4007282417	0.37730419118
8	13000	3.40465025513	0.38095699152
8	13021	3.40786047711	0.37930162845
8	13040	3.41251101746	0.36397403453
8	13042	3.41263105482	0.35278552391
8	13044	3.41319888813	0.35014626944
8	13061	3.41646768071	0.35282769036
8	13121	3.42908503029	0.36124117145
8	13142	3.43279699526	0.3595520626
8	13157	3.4352985126	0.35890376939
8	13166	3.43734659336	0.35963655465
8	13168	3.43748664868	0.35367546843
8	13180	3.43929846242	0.34569835677
8	13226	3.4481675003	0.34964353723
8	13249	3.45488401065	0.34760245887
8	13252	3.45527933838	0.34675544236
8	13257	3.45576327112	0.34540168025
8	13270	3.45710841678	0.34441676515
8	13317	3.46526518673	0.33883605386
8	13328	3.46755644975	0.33057928984
8	13344	3.47085934593	0.32780860545
8	13359	3.47485892647	0.32632897652
8	13365	3.47602816712	0.32257306656
8	13369	3.47735207511	0.3152550984
8	13371	3.47738415069	0.31501380509
8	13386	3.48024004822	0.31299418785
8	13392	3.48219441165	0.31442817759
8	13422	3.4873171181	0.29903825793
8	13441	3.49110787348	0.30035626658
8	13446	3.49165354995	0.2996371932
8	13458	3.49298048979	0.29836516223
8	13491	3.50055240863	0.30431378434
8	13509	3.50451072533	0.29807596621
8	13543	3.5123484558	0.30538775039
8	13545	3.51266572024	0.30544018483
8	13549	3.51461420431	0.30674843924
8	13560	3.51651748941	0.3050413929
8	13567	3.5174459152	0.30331162943
8	13569	3.51777679761	0.30006167107
8	13588	3.52172570848	0.28676001082
8	13617	3.52752391918	0.28697098037
8	13620	3.52808115921	0.28297702569
8	13668	3.54179483603	0.29624157545
8	13710	3.55094721573	0.29784892131
8	13729	3.55443231179	0.30021184391
8	13734	3.55502220077	0.30001295691
8	13737	3.55562499178	0.29291347557
8	13743	3.55648609744	0.28051648793
8	13753	3.55885390279	0.27867139013
8	13767	3.56364936252	0.28239892516
8	13787	3.56838386128	0.28700841085
8	13797	3.57213001231	0.28679677426
8	13799	3.57336551097	0.28320988646
8	13811	3.57613113463	0.28050605813
8	13816	3.57674345346	0.28039571917
8	13823	3.5772793098	0.27744663546
8	13845	3.58173303682	0.27999251353
8	13850	3.58248713912	0.27919595504
8	13878	3.59075174563	0.27208106157
8	13897	3.59532670727	0.27403393792
8	13959	3.60960939424	0.28782858755
8	13965	3.61126739018	0.28336195636
8	13973	3.61210739281	0.27443679023
8	13980	3.61467473442	0.26969280007
8	13994	3.61778747858	0.27088403077
8	14013	3.62427801327	0.27309368302
8	14022	3.62619082813	0.27448813462
8	14030	3.62764796691	0.27470875185
8	14037	3.63001987919	0.27213141588
8	14058	3.63575546311	0.27481092482
8	14061	3.63591023466	0.27433253667
8	14068	3.6379692734	0.27567239883
8	14074	3.638658514	0.27329190972
8	14112	3.64942149571	0.27847155848
8	14118	3.6510374111	0.27232204602
8	14135	3.65542438734	0.27189690495
8	14153	3.66020956133	0.2731756664
8	14218	3.67575340546	0.28734365546
8	14230	3.6807108998	0.29162831343
8	14235	3.68241938869	0.29236161427
8	14324	3.70291881015	0.30693440529
8	14327	3.70420347048	0.30764978881
8	14365	3.71425807219	0.3102772037
8	14368	3.71467366698	0.30317231434
8	14414	3.72639976489	0.31243087104
8	14417	3.7269051498	0.3115457158
8	14439	3.73165070791	0.31479175328
8	14441	3.73168102148	0.31363243436
8	14500	3.74743075662	0.32477695105
8	14536	3.75543675895	0.31990528135
8	14620	3.77267151699	0.33638947507
8	14640	3.77744567946	0.33819503484
8	14650	3.77918896423	0.3354340629
8	14652	3.78032503103	0.32514107976
8	14656	3.78114796092	0.32437727884
8	14686	3.78677610487	0.32820769906
8	14726	3.79466637444	0.33600044446
8	14729	3.79490272507	0.3330977316
8	14734	3.79519490118	0.33014905572
8	14815	3.81391615702	0.34602092825
8	14820	3.81519174827	0.34214229671
8	14840	3.81807623088	0.33997384074
8	14847	3.81871418707	0.33913777901
8	14914	3.83296674887	0.34491730874
8	14928	3.8353684051	0.34536681595
8	14933	3.83629381962	0.34374639586
8	14956	3.84205883328	0.34460897879
8	14981	3.84578239783	0.34576807429
8	15005	3.84984233227	0.3473750867
8	15072	3.86381405391	0.33965803228
8	15085	3.86734350468	0.34044200537
8	15092	3.86862116807	0.34141497044
8	15126	3.87558153795	0.34544702471
8	15152	3.8799656969	0.34954720736
8	15188	3.8866736594	0.33975619527
8	15191	3.8870234673	0.33991720126
8	15195	3.88738602392	0.33874186856
8	15281	3.90520702408	0.35616540637
8	15312	3.9098936003	0.35852354593
8	15319	3.91075290562	0.35472096137
8	15324	3.91186316818	0.35547033461
8	15358	3.91717149881	0.35340028215
8	15375	3.92009609095	0.34542930143
8	15391	3.92299057028	0.34635885681
8	15428	3.93192088438	0.33979117905
8	15433	3.93322430079	0.34051870791
8	15462	3.938433209	0.34307037053
8	15465	3.93867269783	0.32237123981
8	15467	3.93904391636	0.30607108417
8	15505	3.94508907915	0.30766876443
8	15509	3.94657214046	0.30830233038
8	15519	3.94927035652	0.30512234242
8	15558	3.95580451063	0.30580597217
8	15571	3.9578888909	0.29008470866
8	15574	3.95865265775	0.29040460532
8	15609	3.96572485828	0.29385398856
8	15628	3.9696758697	0.29425698395
8	15702	3.9833161668	0.30284139799
8	15708	3.98369989508	0.298095316
8	15727	3.98762034656	0.30190114142
8	15774	3.99778434641	0.29635283728
8	15815	4.00476017271	0.29973222088
8	15840	4.01077345747	0.29742692689
8	15844	4.01193548506	0.28733600865
8	15847	4.01244066921	0.28439209008
8	15853	4.01278079705	0.28193406905
8	15865	4.01455341443	0.27995132175
8	15875	4.01732599752	0.2812891683
8	15904	4.02268728102	0.28264817751
8	15913	4.02401711867	0.27099125467
8	15916	4.02500531169	0.26757646209
8	15924	4.02600098617	0.2676617714
8	15931	4.02728777788	0.2600597614
8	15962	4.03260502319	0.26310167248
8	15964	4.0332268536	0.25783660048
8	15994	4.03965495249	0.2611080809
8	16001	4.04038780162	0.25571082642
8	16045	4.05075029979	0.2596328988
8	16052	4.05167491132	0.25890538623
8	16071	4.05350236867	0.25914428244
8	16108	4.06060153747	0.26177979857
8	16119	4.06212372143	0.2629934848
8	16124	4.06379736772	0.26364668527
8	16126	4.063972871	0.26236185243
8	16169	4.07252478734	0.26273640686
8	16180	4.07448401154	0.25682955787
8	16199	4.07909757102	0.2613397502
8	16202	4.0807650816	0.26141905829
8	16210	4.08181572327	0.25653131285
8	16230	4.08539129738	0.25570347063
8	16232	4.08588693732	0.25187763263
8	16240	4.08840591426	0.25021602057
8	16266	4.09404479687	0.25050172258
8	16268	4.09410328027	0.24964710929
8	16273	4.0950014055	0.24700682774
8	16294	4.09900324764	0.24783332722
8	16310	4.10261080122	0.24206889358
8	16329	4.10586757046	0.24301035897
8	16371	4.11535493637	0.24044450092
8	16396	4.12192747359	0.24676389248
8	16407	4.12425340674	0.24483340705
8	16431	4.12976701242	0.24865024465
8	16442	4.13271696262	0.24976184691
8	16444	4.13287551172	0.24971944205
8	16463	4.1365682785	0.24849073322
8	16494	4.14368763833	0.24201315911
8	16498	4.14525160424	0.24343521765
8	16504	4.14795414352	0.24118213416
8	16527	4.152091018	0.24056237647
8	16549	4.15740236527	0.24517679441
8	16572	4.16341674584	0.24695635337
8	16607	4.17206236813	0.24955963623
8	16610	4.17224677182	0.24842589992
8	16630	4.17697912522	0.24710588111
8	16641	4.17968539062	0.24574060051
8	16652	4.18086368103	0.2466200308
8	16676	4.18765411428	0.24740455382
8	16725	4.19784876098	0.25611173254
8	16748	4.2035705963	0.25399647106
8	16754	4.20656757854	0.25657216366
8	16761	4.20865441283	0.2572626137
8	16772	4.2105423707	0.25686864982
8	16774	4.21063835277	0.25461077191
8	16788	4.21500539183	0.25618957502
8	16794	4.21680817572	0.24591884787
8	16798	4.21790301287	0.24558650808
8	16801	4.21875798482	0.23998584478
8	16804	4.2196899088	0.23775494905
8	16806	4.21985998258	0.2341395948
8	16811	4.22107969251	0.2330693829