version 2
run simpleNet-0-20181121-11:24:49-19365
attr configname simpleNet
attr datetime 20181121-11:24:49
attr experiment simpleNet
attr inifile omnetpp.ini
attr iterationvars ""
attr iterationvarsf ""
attr measurement ""
attr network simpleNet
attr processid 19365
attr repetition 0
attr replication #0
attr resultdir results
attr runnumber 0
attr seedset 0

vector 0 simpleNet.node[0] "numAttemptedPerDest_Total(dest node 4):vector" ETV
vector 1 simpleNet.node[0] "numAttemptedPerDest_Total(dest node 1):vector" ETV
vector 2 simpleNet.node[0] "numInQueuePerChannel(node 1):vector" ETV
vector 3 simpleNet.node[0] "numInQueuePerChannel(node 4):vector" ETV
vector 4 simpleNet.node[0] "balancePerChannel(node 1):vector" ETV
vector 5 simpleNet.node[0] "balancePerChannel(node 4):vector" ETV
vector 6 simpleNet.node[0] "numProcessedPerChannel(node 0):vector" ETV
vector 7 simpleNet.node[0] "numProcessedPerChannel(node 1):vector" ETV
vector 8 simpleNet.node[0] "numProcessedPerChannel(node 2):vector" ETV
vector 9 simpleNet.node[0] "numProcessedPerChannel(node 3):vector" ETV
vector 10 simpleNet.node[0] "numProcessedPerChannel(node 4):vector" ETV
vector 11 simpleNet.node[1] "numAttemptedPerDest_Total(dest node 3):vector" ETV
vector 12 simpleNet.node[1] "numInQueuePerChannel(node 0):vector" ETV
vector 13 simpleNet.node[1] "numInQueuePerChannel(node 2):vector" ETV
vector 14 simpleNet.node[1] "numInQueuePerChannel(node 3):vector" ETV
vector 15 simpleNet.node[1] "balancePerChannel(node 0):vector" ETV
vector 16 simpleNet.node[1] "balancePerChannel(node 2):vector" ETV
vector 17 simpleNet.node[1] "balancePerChannel(node 3):vector" ETV
vector 18 simpleNet.node[1] "numProcessedPerChannel(node 0):vector" ETV
vector 19 simpleNet.node[1] "numProcessedPerChannel(node 1):vector" ETV
vector 20 simpleNet.node[1] "numProcessedPerChannel(node 2):vector" ETV
vector 21 simpleNet.node[1] "numProcessedPerChannel(node 3):vector" ETV
vector 22 simpleNet.node[1] "numProcessedPerChannel(node 4):vector" ETV
vector 23 simpleNet.node[2] "numAttemptedPerDest_Total(dest node 1):vector" ETV
vector 24 simpleNet.node[2] "numAttemptedPerDest_Total(dest node 4):vector" ETV
vector 25 simpleNet.node[2] "numInQueuePerChannel(node 1):vector" ETV
vector 26 simpleNet.node[2] "numInQueuePerChannel(node 3):vector" ETV
vector 27 simpleNet.node[2] "balancePerChannel(node 1):vector" ETV
vector 28 simpleNet.node[2] "balancePerChannel(node 3):vector" ETV
vector 29 simpleNet.node[2] "numProcessedPerChannel(node 0):vector" ETV
vector 30 simpleNet.node[2] "numProcessedPerChannel(node 1):vector" ETV
vector 31 simpleNet.node[2] "numProcessedPerChannel(node 2):vector" ETV
vector 32 simpleNet.node[2] "numProcessedPerChannel(node 3):vector" ETV
vector 33 simpleNet.node[2] "numProcessedPerChannel(node 4):vector" ETV
vector 34 simpleNet.node[3] "numAttemptedPerDest_Total(dest node 0):vector" ETV
vector 35 simpleNet.node[3] "numAttemptedPerDest_Total(dest node 2):vector" ETV
vector 36 simpleNet.node[3] "numInQueuePerChannel(node 1):vector" ETV
vector 37 simpleNet.node[3] "numInQueuePerChannel(node 2):vector" ETV
vector 38 simpleNet.node[3] "numInQueuePerChannel(node 4):vector" ETV
vector 39 simpleNet.node[3] "balancePerChannel(node 1):vector" ETV
vector 40 simpleNet.node[3] "balancePerChannel(node 2):vector" ETV
vector 41 simpleNet.node[3] "balancePerChannel(node 4):vector" ETV
vector 42 simpleNet.node[3] "numProcessedPerChannel(node 0):vector" ETV
vector 43 simpleNet.node[3] "numProcessedPerChannel(node 1):vector" ETV
vector 44 simpleNet.node[3] "numProcessedPerChannel(node 2):vector" ETV
vector 45 simpleNet.node[3] "numProcessedPerChannel(node 3):vector" ETV
vector 46 simpleNet.node[3] "numProcessedPerChannel(node 4):vector" ETV
vector 47 simpleNet.node[4] "numAttemptedPerDest_Total(dest node 2):vector" ETV
vector 48 simpleNet.node[4] "numInQueuePerChannel(node 0):vector" ETV
vector 49 simpleNet.node[4] "numInQueuePerChannel(node 3):vector" ETV
vector 50 simpleNet.node[4] "balancePerChannel(node 0):vector" ETV
vector 51 simpleNet.node[4] "balancePerChannel(node 3):vector" ETV
vector 52 simpleNet.node[4] "numProcessedPerChannel(node 0):vector" ETV
vector 53 simpleNet.node[4] "numProcessedPerChannel(node 1):vector" ETV
vector 54 simpleNet.node[4] "numProcessedPerChannel(node 2):vector" ETV
vector 55 simpleNet.node[4] "numProcessedPerChannel(node 3):vector" ETV
vector 56 simpleNet.node[4] "numProcessedPerChannel(node 4):vector" ETV
vector 57 simpleNet.node[0] completionTime:vector ETV
attr interpolationmode none
attr source completionTime
attr title "completionTime, vector"
vector 58 simpleNet.node[0] "numCompletedPerDest_Total(dest node 4):vector" ETV
vector 59 simpleNet.node[0] "numCompletedPerDest_Total(dest node 1):vector" ETV
vector 60 simpleNet.node[1] completionTime:vector ETV
attr interpolationmode none
attr source completionTime
attr title "completionTime, vector"
vector 61 simpleNet.node[1] "numCompletedPerDest_Total(dest node 3):vector" ETV
vector 62 simpleNet.node[2] completionTime:vector ETV
attr interpolationmode none
attr source completionTime
attr title "completionTime, vector"
vector 63 simpleNet.node[2] "numCompletedPerDest_Total(dest node 1):vector" ETV
vector 64 simpleNet.node[3] completionTime:vector ETV
attr interpolationmode none
attr source completionTime
attr title "completionTime, vector"
vector 65 simpleNet.node[3] "numCompletedPerDest_Total(dest node 2):vector" ETV
vector 66 simpleNet.node[2] "numCompletedPerDest_Total(dest node 4):vector" ETV
vector 67 simpleNet.node[3] "numCompletedPerDest_Total(dest node 0):vector" ETV
vector 68 simpleNet.node[4] completionTime:vector ETV
attr interpolationmode none
attr source completionTime
attr title "completionTime, vector"
vector 69 simpleNet.node[4] "numCompletedPerDest_Total(dest node 2):vector" ETV
0	1	0	1
0	18	0.02	2
0	38	0.04	3
0	62	0.06	4
0	98	0.08	5
0	142	0.1	6
0	190	0.12	7
0	248	0.14	8
0	309	0.16	9
0	372	0.18	10
0	435	0.2	11
0	498	0.22	12
0	561	0.24	13
0	624	0.26	14
0	687	0.28	15
0	750	0.3	16
0	813	0.32	17
0	876	0.34	18
0	939	0.36	19
0	1002	0.38	20
0	1065	0.4	21
0	1128	0.42	22
0	1191	0.44	23
0	1254	0.46	24
0	1317	0.48	25
0	1380	0.5	26
0	1448	0.52	27
0	1511	0.54	28
0	1574	0.56	29
0	1637	0.58	30
0	1700	0.6	31
0	1763	0.62	32
0	1826	0.64	33
0	1889	0.66	34
0	1950	0.68	35
0	2010	0.7	36
0	2067	0.72	37
0	2121	0.74	38
0	2173	0.76	39
0	2222	0.78	40
0	2268	0.8	41
0	2316	0.82	42
0	2361	0.84	43
0	2409	0.86	44
0	2454	0.88	45
0	2502	0.9	46
0	2547	0.92	47
0	2595	0.94	48
0	2640	0.96	49
0	2688	0.98	50
0	2733	1	51
0	2786	1.02	52
0	2830	1.04	53
0	2876	1.06	54
0	2917	1.08	55
0	2960	1.1	56
0	2999	1.12	57
0	3041	1.14	58
0	3080	1.16	59
0	3121	1.18	60
0	3158	1.2	61
0	3195	1.22	62
0	3228	1.24	63
0	3262	1.26	64
0	3291	1.28	65
0	3324	1.3	66
0	3352	1.32	67
0	3384	1.34	68
0	3412	1.36	69
0	3441	1.38	70
0	3467	1.4	71
0	3495	1.42	72
0	3519	1.44	73
0	3547	1.46	74
0	3573	1.48	75
0	3597	1.5	76
0	3628	1.52	77
0	3654	1.54	78
0	3678	1.56	79
0	3704	1.58	80
0	3730	1.6	81
0	3754	1.62	82
0	3779	1.64	83
0	3803	1.66	84
0	3827	1.68	85
0	3851	1.7	86
0	3875	1.72	87
0	3899	1.74	88
0	3923	1.76	89
0	3947	1.78	90
0	3971	1.8	91
0	3995	1.82	92
0	4019	1.84	93
0	4043	1.86	94
0	4067	1.88	95
0	4091	1.9	96
0	4115	1.92	97
0	4139	1.94	98
0	4163	1.96	99
0	4187	1.98	100
0	4211	2	101
0	4240	2.02	102
0	4262	2.04	103
0	4284	2.06	104
0	4304	2.08	105
0	4322	2.1	106
0	4340	2.12	107
0	4358	2.14	108
0	4376	2.16	109
0	4394	2.18	110
0	4412	2.2	111
0	4430	2.22	112
0	4448	2.24	113
0	4466	2.26	114
0	4484	2.28	115
0	4502	2.3	116
0	4520	2.32	117
0	4538	2.34	118
0	4556	2.36	119
0	4574	2.38	120
0	4592	2.4	121
0	4610	2.42	122
0	4628	2.44	123
0	4646	2.46	124
0	4664	2.48	125
0	4682	2.5	126
0	4705	2.52	127
0	4723	2.54	128
0	4741	2.56	129
0	4759	2.58	130
0	4777	2.6	131
0	4795	2.62	132
0	4813	2.64	133
0	4831	2.66	134
0	4849	2.68	135
0	4867	2.7	136
0	4885	2.72	137
0	4903	2.74	138
0	4921	2.76	139
0	4939	2.78	140
0	4957	2.8	141
0	4973	2.82	142
0	4989	2.84	143
0	5005	2.86	144
0	5021	2.88	145
0	5037	2.9	146
0	5053	2.92	147
0	5069	2.94	148
0	5085	2.96	149
0	5101	2.98	150
0	5117	3	151
0	5138	3.02	152
0	5154	3.04	153
0	5170	3.06	154
0	5186	3.08	155
0	5202	3.1	156
0	5218	3.12	157
0	5234	3.14	158
0	5250	3.16	159
0	5266	3.18	160
0	5282	3.2	161
0	5298	3.22	162
0	5314	3.24	163
0	5330	3.26	164
0	5346	3.28	165
0	5362	3.3	166
0	5378	3.32	167
0	5394	3.34	168
0	5410	3.36	169
0	5426	3.38	170
0	5442	3.4	171
0	5458	3.42	172
0	5474	3.44	173
0	5490	3.46	174
0	5506	3.48	175
0	5522	3.5	176
0	5543	3.52	177
0	5559	3.54	178
0	5575	3.56	179
0	5591	3.58	180
0	5607	3.6	181
0	5623	3.62	182
0	5639	3.64	183
0	5654	3.66	184
0	5669	3.68	185
0	5683	3.7	186
0	5696	3.72	187
0	5709	3.74	188
0	5722	3.76	189
0	5735	3.78	190
0	5748	3.8	191
0	5761	3.82	192
0	5774	3.84	193
0	5787	3.86	194
0	5800	3.88	195
0	5813	3.9	196
0	5826	3.92	197
0	5839	3.94	198
0	5852	3.96	199
0	5865	3.98	200
0	5878	4	201
0	5896	4.02	202
0	5909	4.04	203
0	5922	4.06	204
0	5935	4.08	205
0	5948	4.1	206
0	5961	4.12	207
0	5974	4.14	208
0	5987	4.16	209
0	6000	4.18	210
0	6013	4.2	211
0	6026	4.22	212
0	6039	4.24	213
0	6052	4.26	214
0	6065	4.28	215
0	6078	4.3	216
0	6091	4.32	217
0	6104	4.34	218
0	6117	4.36	219
0	6130	4.38	220
0	6143	4.4	221
0	6156	4.42	222
0	6169	4.44	223
0	6182	4.46	224
0	6195	4.48	225
0	6208	4.5	226
0	6226	4.52	227
0	6239	4.54	228
0	6252	4.56	229
0	6265	4.58	230
0	6278	4.6	231
0	6291	4.62	232
0	6304	4.64	233
0	6317	4.66	234
0	6330	4.68	235
0	6343	4.7	236
0	6356	4.72	237
0	6369	4.74	238
0	6382	4.76	239
0	6395	4.78	240
0	6408	4.8	241
0	6421	4.82	242
0	6434	4.84	243
0	6447	4.86	244
0	6460	4.88	245
0	6473	4.9	246
0	6486	4.92	247
0	6499	4.94	248
0	6512	4.96	249
0	6525	4.98	250
0	6538	5	251
0	6556	5.02	252
0	6569	5.04	253
0	6582	5.06	254
0	6595	5.08	255
0	6608	5.1	256
0	6621	5.12	257
0	6634	5.14	258
0	6647	5.16	259
0	6660	5.18	260
0	6672	5.2	261
0	6684	5.22	262
0	6696	5.24	263
0	6708	5.26	264
0	6720	5.28	265
0	6732	5.3	266
0	6744	5.32	267
0	6756	5.34	268
0	6768	5.36	269
0	6780	5.38	270
0	6792	5.4	271
0	6804	5.42	272
0	6816	5.44	273
0	6828	5.46	274
0	6840	5.48	275
0	6852	5.5	276
0	6869	5.52	277
0	6881	5.54	278
0	6893	5.56	279
0	6905	5.58	280
0	6917	5.6	281
0	6929	5.62	282
0	6941	5.64	283
0	6953	5.66	284
0	6965	5.68	285
0	6977	5.7	286
0	6989	5.72	287
0	7001	5.74	288
0	7013	5.76	289
0	7025	5.78	290
0	7037	5.8	291
0	7049	5.82	292
0	7061	5.84	293
0	7073	5.86	294
0	7085	5.88	295
0	7097	5.9	296
0	7109	5.92	297
0	7121	5.94	298
0	7133	5.96	299
0	7145	5.98	300
0	7157	6	301
0	7174	6.02	302
0	7186	6.04	303
0	7198	6.06	304
0	7210	6.08	305
0	7222	6.1	306
0	7234	6.12	307
0	7246	6.14	308
0	7258	6.16	309
0	7270	6.18	310
0	7282	6.2	311
0	7294	6.22	312
0	7306	6.24	313
0	7318	6.26	314
0	7330	6.28	315
0	7342	6.3	316
0	7354	6.32	317
0	7366	6.34	318
0	7378	6.36	319
0	7390	6.38	320
0	7402	6.4	321
0	7414	6.42	322
0	7426	6.44	323
0	7438	6.46	324
0	7450	6.48	325
0	7462	6.5	326
0	7479	6.52	327
0	7491	6.54	328
0	7503	6.56	329
0	7515	6.58	330
0	7527	6.6	331
0	7539	6.62	332
0	7551	6.64	333
0	7563	6.66	334
0	7575	6.68	335
0	7587	6.7	336
0	7599	6.72	337
0	7611	6.74	338
0	7623	6.76	339
0	7635	6.78	340
0	7647	6.8	341
0	7659	6.82	342
0	7671	6.84	343
0	7683	6.86	344
0	7695	6.88	345
0	7707	6.9	346
0	7719	6.92	347
0	7731	6.94	348
0	7743	6.96	349
0	7755	6.98	350
0	7767	7	351
0	7784	7.02	352
0	7796	7.04	353
0	7808	7.06	354
0	7820	7.08	355
0	7832	7.1	356
0	7844	7.12	357
0	7856	7.14	358
0	7868	7.16	359
0	7880	7.18	360
0	7892	7.2	361
0	7904	7.22	362
0	7916	7.24	363
0	7928	7.26	364
0	7940	7.28	365
0	7952	7.3	366
0	7964	7.32	367
0	7976	7.34	368
0	7988	7.36	369
0	8000	7.38	370
0	8012	7.4	371
0	8024	7.42	372
0	8036	7.44	373
0	8048	7.46	374
0	8060	7.48	375
0	8072	7.5	376
0	8089	7.52	377
0	8101	7.54	378
0	8113	7.56	379
0	8125	7.58	380
0	8137	7.6	381
0	8149	7.62	382
0	8161	7.64	383
0	8173	7.66	384
0	8185	7.68	385
0	8197	7.7	386
0	8209	7.72	387
0	8221	7.74	388
0	8233	7.76	389
0	8245	7.78	390
0	8257	7.8	391
0	8269	7.82	392
0	8281	7.84	393
0	8293	7.86	394
0	8305	7.88	395
0	8317	7.9	396
0	8329	7.92	397
0	8341	7.94	398
0	8353	7.96	399
0	8365	7.98	400
0	8377	8	401
0	8394	8.02	402
0	8406	8.04	403
0	8418	8.06	404
0	8430	8.08	405
0	8442	8.1	406
0	8454	8.12	407
0	8466	8.14	408
0	8478	8.16	409
0	8490	8.18	410
0	8502	8.2	411
0	8514	8.22	412
0	8526	8.24	413
0	8538	8.26	414
0	8550	8.28	415
0	8562	8.3	416
0	8574	8.32	417
0	8586	8.34	418
0	8598	8.36	419
0	8610	8.38	420
0	8622	8.4	421
0	8634	8.42	422
0	8646	8.44	423
0	8658	8.46	424
0	8670	8.48	425
0	8682	8.5	426
0	8699	8.52	427
0	8711	8.54	428
0	8723	8.56	429
0	8735	8.58	430
0	8747	8.6	431
0	8759	8.62	432
0	8771	8.64	433
0	8783	8.66	434
0	8795	8.68	435
0	8807	8.7	436
0	8819	8.72	437
0	8831	8.74	438
0	8843	8.76	439
0	8855	8.78	440
0	8867	8.8	441
0	8879	8.82	442
0	8891	8.84	443
0	8903	8.86	444
0	8915	8.88	445
0	8927	8.9	446
0	8939	8.92	447
0	8951	8.94	448
0	8963	8.96	449
0	8975	8.98	450
0	8987	9	451
0	9004	9.02	452
0	9016	9.04	453
0	9028	9.06	454
0	9040	9.08	455
0	9052	9.1	456
0	9064	9.12	457
0	9076	9.14	458
0	9088	9.16	459
0	9100	9.18	460
0	9112	9.2	461
0	9124	9.22	462
0	9136	9.24	463
0	9148	9.26	464
0	9160	9.28	465
0	9172	9.3	466
0	9184	9.32	467
0	9196	9.34	468
0	9208	9.36	469
0	9220	9.38	470
0	9232	9.4	471
0	9244	9.42	472
0	9256	9.44	473
0	9268	9.46	474
0	9280	9.48	475
0	9292	9.5	476
0	9309	9.52	477
0	9321	9.54	478
0	9333	9.56	479
0	9345	9.58	480
0	9357	9.6	481
0	9369	9.62	482
0	9381	9.64	483
0	9393	9.66	484
0	9405	9.68	485
0	9417	9.7	486
0	9429	9.72	487
0	9441	9.74	488
0	9453	9.76	489
0	9465	9.78	490
0	9477	9.8	491
0	9489	9.82	492
0	9501	9.84	493
0	9513	9.86	494
0	9525	9.88	495
0	9537	9.9	496
0	9549	9.92	497
0	9561	9.94	498
0	9573	9.96	499
0	9585	9.98	500
1	2	0	1
1	19	0.02	2
1	39	0.04	3
1	63	0.06	4
1	99	0.08	5
1	143	0.1	6
1	191	0.12	7
1	249	0.14	8
1	310	0.16	9
1	373	0.18	10
1	436	0.2	11
1	499	0.22	12
1	562	0.24	13
1	625	0.26	14
1	688	0.28	15
1	751	0.3	16
1	814	0.32	17
1	877	0.34	18
1	940	0.36	19
1	1003	0.38	20
1	1066	0.4	21
1	1129	0.42	22
1	1192	0.44	23
1	1255	0.46	24
1	1318	0.48	25
1	1381	0.5	26
1	1449	0.52	27
1	1512	0.54	28
1	1575	0.56	29
1	1638	0.58	30
1	1701	0.6	31
1	1764	0.62	32
1	1827	0.64	33
1	1890	0.66	34
1	1951	0.68	35
1	2011	0.7	36
1	2068	0.72	37
1	2122	0.74	38
1	2174	0.76	39
1	2223	0.78	40
1	2269	0.8	41
1	2317	0.82	42
1	2362	0.84	43
1	2410	0.86	44
1	2455	0.88	45
1	2503	0.9	46
1	2548	0.92	47
1	2596	0.94	48
1	2641	0.96	49
1	2689	0.98	50
1	2734	1	51
1	2787	1.02	52
1	2831	1.04	53
1	2877	1.06	54
1	2918	1.08	55
1	2961	1.1	56
1	3000	1.12	57
1	3042	1.14	58
1	3081	1.16	59
1	3122	1.18	60
1	3159	1.2	61
1	3196	1.22	62
1	3229	1.24	63
1	3263	1.26	64
1	3292	1.28	65
1	3325	1.3	66
1	3353	1.32	67
1	3385	1.34	68
1	3413	1.36	69
1	3442	1.38	70
1	3468	1.4	71
1	3496	1.42	72
1	3520	1.44	73
1	3548	1.46	74
1	3574	1.48	75
1	3598	1.5	76
1	3629	1.52	77
1	3655	1.54	78
1	3679	1.56	79
1	3705	1.58	80
1	3731	1.6	81
1	3755	1.62	82
1	3780	1.64	83
1	3804	1.66	84
1	3828	1.68	85
1	3852	1.7	86
1	3876	1.72	87
1	3900	1.74	88
1	3924	1.76	89
1	3948	1.78	90
1	3972	1.8	91
1	3996	1.82	92
1	4020	1.84	93
1	4044	1.86	94
1	4068	1.88	95
1	4092	1.9	96
1	4116	1.92	97
1	4140	1.94	98
1	4164	1.96	99
1	4188	1.98	100
1	4212	2	101
1	4241	2.02	102
1	4263	2.04	103
1	4285	2.06	104
1	4305	2.08	105
1	4323	2.1	106
1	4341	2.12	107
1	4359	2.14	108
1	4377	2.16	109
1	4395	2.18	110
1	4413	2.2	111
1	4431	2.22	112
1	4449	2.24	113
1	4467	2.26	114
1	4485	2.28	115
1	4503	2.3	116
1	4521	2.32	117
1	4539	2.34	118
1	4557	2.36	119
1	4575	2.38	120
1	4593	2.4	121
1	4611	2.42	122
1	4629	2.44	123
1	4647	2.46	124
1	4665	2.48	125
1	4683	2.5	126
1	4706	2.52	127
1	4724	2.54	128
1	4742	2.56	129
1	4760	2.58	130
1	4778	2.6	131
1	4796	2.62	132
1	4814	2.64	133
1	4832	2.66	134
1	4850	2.68	135
1	4868	2.7	136
1	4886	2.72	137
1	4904	2.74	138
1	4922	2.76	139
1	4940	2.78	140
1	4958	2.8	141
1	4974	2.82	142
1	4990	2.84	143
1	5006	2.86	144
1	5022	2.88	145
1	5038	2.9	146
1	5054	2.92	147
1	5070	2.94	148
1	5086	2.96	149
1	5102	2.98	150
1	5118	3	151
1	5139	3.02	152
1	5155	3.04	153
1	5171	3.06	154
1	5187	3.08	155
1	5203	3.1	156
1	5219	3.12	157
1	5235	3.14	158
1	5251	3.16	159
1	5267	3.18	160
1	5283	3.2	161
1	5299	3.22	162
1	5315	3.24	163
1	5331	3.26	164
1	5347	3.28	165
1	5363	3.3	166
1	5379	3.32	167
1	5395	3.34	168
1	5411	3.36	169
1	5427	3.38	170
1	5443	3.4	171
1	5459	3.42	172
1	5475	3.44	173
1	5491	3.46	174
1	5507	3.48	175
1	5523	3.5	176
1	5544	3.52	177
1	5560	3.54	178
1	5576	3.56	179
1	5592	3.58	180
1	5608	3.6	181
1	5624	3.62	182
1	5640	3.64	183
1	5655	3.66	184
1	5670	3.68	185
1	5684	3.7	186
1	5697	3.72	187
1	5710	3.74	188
1	5723	3.76	189
1	5736	3.78	190
1	5749	3.8	191
1	5762	3.82	192
1	5775	3.84	193
1	5788	3.86	194
1	5801	3.88	195
1	5814	3.9	196
1	5827	3.92	197
1	5840	3.94	198
1	5853	3.96	199
1	5866	3.98	200
1	5879	4	201
1	5897	4.02	202
1	5910	4.04	203
1	5923	4.06	204
1	5936	4.08	205
1	5949	4.1	206
1	5962	4.12	207
1	5975	4.14	208
1	5988	4.16	209
1	6001	4.18	210
1	6014	4.2	211
1	6027	4.22	212
1	6040	4.24	213
1	6053	4.26	214
1	6066	4.28	215
1	6079	4.3	216
1	6092	4.32	217
1	6105	4.34	218
1	6118	4.36	219
1	6131	4.38	220
1	6144	4.4	221
1	6157	4.42	222
1	6170	4.44	223
1	6183	4.46	224
1	6196	4.48	225
1	6209	4.5	226
1	6227	4.52	227
1	6240	4.54	228
1	6253	4.56	229
1	6266	4.58	230
1	6279	4.6	231
1	6292	4.62	232
1	6305	4.64	233
1	6318	4.66	234
1	6331	4.68	235
1	6344	4.7	236
1	6357	4.72	237
1	6370	4.74	238
1	6383	4.76	239
1	6396	4.78	240
1	6409	4.8	241
1	6422	4.82	242
1	6435	4.84	243
1	6448	4.86	244
1	6461	4.88	245
1	6474	4.9	246
1	6487	4.92	247
1	6500	4.94	248
1	6513	4.96	249
1	6526	4.98	250
1	6539	5	251
1	6557	5.02	252
1	6570	5.04	253
1	6583	5.06	254
1	6596	5.08	255
1	6609	5.1	256
1	6622	5.12	257
1	6635	5.14	258
1	6648	5.16	259
1	6661	5.18	260
1	6673	5.2	261
1	6685	5.22	262
1	6697	5.24	263
1	6709	5.26	264
1	6721	5.28	265
1	6733	5.3	266
1	6745	5.32	267
1	6757	5.34	268
1	6769	5.36	269
1	6781	5.38	270
1	6793	5.4	271
1	6805	5.42	272
1	6817	5.44	273
1	6829	5.46	274
1	6841	5.48	275
1	6853	5.5	276
1	6870	5.52	277
1	6882	5.54	278
1	6894	5.56	279
1	6906	5.58	280
1	6918	5.6	281
1	6930	5.62	282
1	6942	5.64	283
1	6954	5.66	284
1	6966	5.68	285
1	6978	5.7	286
1	6990	5.72	287
1	7002	5.74	288
1	7014	5.76	289
1	7026	5.78	290
1	7038	5.8	291
1	7050	5.82	292
1	7062	5.84	293
1	7074	5.86	294
1	7086	5.88	295
1	7098	5.9	296
1	7110	5.92	297
1	7122	5.94	298
1	7134	5.96	299
1	7146	5.98	300
1	7158	6	301
1	7175	6.02	302
1	7187	6.04	303
1	7199	6.06	304
1	7211	6.08	305
1	7223	6.1	306
1	7235	6.12	307
1	7247	6.14	308
1	7259	6.16	309
1	7271	6.18	310
1	7283	6.2	311
1	7295	6.22	312
1	7307	6.24	313
1	7319	6.26	314
1	7331	6.28	315
1	7343	6.3	316
1	7355	6.32	317
1	7367	6.34	318
1	7379	6.36	319
1	7391	6.38	320
1	7403	6.4	321
1	7415	6.42	322
1	7427	6.44	323
1	7439	6.46	324
1	7451	6.48	325
1	7463	6.5	326
1	7480	6.52	327
1	7492	6.54	328
1	7504	6.56	329
1	7516	6.58	330
1	7528	6.6	331
1	7540	6.62	332
1	7552	6.64	333
1	7564	6.66	334
1	7576	6.68	335
1	7588	6.7	336
1	7600	6.72	337
1	7612	6.74	338
1	7624	6.76	339
1	7636	6.78	340
1	7648	6.8	341
1	7660	6.82	342
1	7672	6.84	343
1	7684	6.86	344
1	7696	6.88	345
1	7708	6.9	346
1	7720	6.92	347
1	7732	6.94	348
1	7744	6.96	349
1	7756	6.98	350
1	7768	7	351
1	7785	7.02	352
1	7797	7.04	353
1	7809	7.06	354
1	7821	7.08	355
1	7833	7.1	356
1	7845	7.12	357
1	7857	7.14	358
1	7869	7.16	359
1	7881	7.18	360
1	7893	7.2	361
1	7905	7.22	362
1	7917	7.24	363
1	7929	7.26	364
1	7941	7.28	365
1	7953	7.3	366
1	7965	7.32	367
1	7977	7.34	368
1	7989	7.36	369
1	8001	7.38	370
1	8013	7.4	371
1	8025	7.42	372
1	8037	7.44	373
1	8049	7.46	374
1	8061	7.48	375
1	8073	7.5	376
1	8090	7.52	377
1	8102	7.54	378
1	8114	7.56	379
1	8126	7.58	380
1	8138	7.6	381
1	8150	7.62	382
1	8162	7.64	383
1	8174	7.66	384
1	8186	7.68	385
1	8198	7.7	386
1	8210	7.72	387
1	8222	7.74	388
1	8234	7.76	389
1	8246	7.78	390
1	8258	7.8	391
1	8270	7.82	392
1	8282	7.84	393
1	8294	7.86	394
1	8306	7.88	395
1	8318	7.9	396
1	8330	7.92	397
1	8342	7.94	398
1	8354	7.96	399
1	8366	7.98	400
1	8378	8	401
1	8395	8.02	402
1	8407	8.04	403
1	8419	8.06	404
1	8431	8.08	405
1	8443	8.1	406
1	8455	8.12	407
1	8467	8.14	408
1	8479	8.16	409
1	8491	8.18	410
1	8503	8.2	411
1	8515	8.22	412
1	8527	8.24	413
1	8539	8.26	414
1	8551	8.28	415
1	8563	8.3	416
1	8575	8.32	417
1	8587	8.34	418
1	8599	8.36	419
1	8611	8.38	420
1	8623	8.4	421
1	8635	8.42	422
1	8647	8.44	423
1	8659	8.46	424
1	8671	8.48	425
1	8683	8.5	426
1	8700	8.52	427
1	8712	8.54	428
1	8724	8.56	429
1	8736	8.58	430
1	8748	8.6	431
1	8760	8.62	432
1	8772	8.64	433
1	8784	8.66	434
1	8796	8.68	435
1	8808	8.7	436
1	8820	8.72	437
1	8832	8.74	438
1	8844	8.76	439
1	8856	8.78	440
1	8868	8.8	441
1	8880	8.82	442
1	8892	8.84	443
1	8904	8.86	444
1	8916	8.88	445
1	8928	8.9	446
1	8940	8.92	447
1	8952	8.94	448
1	8964	8.96	449
1	8976	8.98	450
1	8988	9	451
1	9005	9.02	452
1	9017	9.04	453
1	9029	9.06	454
1	9041	9.08	455
1	9053	9.1	456
1	9065	9.12	457
1	9077	9.14	458
1	9089	9.16	459
1	9101	9.18	460
1	9113	9.2	461
1	9125	9.22	462
1	9137	9.24	463
1	9149	9.26	464
1	9161	9.28	465
1	9173	9.3	466
1	9185	9.32	467
1	9197	9.34	468
1	9209	9.36	469
1	9221	9.38	470
1	9233	9.4	471
1	9245	9.42	472
1	9257	9.44	473
1	9269	9.46	474
1	9281	9.48	475
1	9293	9.5	476
1	9310	9.52	477
1	9322	9.54	478
1	9334	9.56	479
1	9346	9.58	480
1	9358	9.6	481
1	9370	9.62	482
1	9382	9.64	483
1	9394	9.66	484
1	9406	9.68	485
1	9418	9.7	486
1	9430	9.72	487
1	9442	9.74	488
1	9454	9.76	489
1	9466	9.78	490
1	9478	9.8	491
1	9490	9.82	492
1	9502	9.84	493
1	9514	9.86	494
1	9526	9.88	495
1	9538	9.9	496
1	9550	9.92	497
1	9562	9.94	498
1	9574	9.96	499
1	9586	9.98	500
2	3	0	0
2	1388	0.5	0
2	2741	1	0
2	3605	1.5	0
2	4219	2	1
2	4690	2.5	26
2	5125	3	51
2	5530	3.5	76
2	5886	4	101
2	6216	4.5	126
2	6546	5	151
2	6860	5.5	176
2	7165	6	201
2	7470	6.5	226
2	7775	7	251
2	8080	7.5	276
2	8385	8	301
2	8690	8.5	326
2	8995	9	351
2	9300	9.5	376
2	9597	10	400
2	9602	10.5	400
3	3	0	0
3	1388	0.5	0
3	2741	1	0
3	3605	1.5	0
3	4219	2	0
3	4690	2.5	0
3	5125	3	0
3	5530	3.5	0
3	5886	4	20
3	6216	4.5	45
3	6546	5	70
3	6860	5.5	95
3	7165	6	120
3	7470	6.5	145
3	7775	7	170
3	8080	7.5	195
3	8385	8	220
3	8690	8.5	245
3	8995	9	270
3	9300	9.5	295
3	9597	10	319
3	9602	10.5	319
4	3	0	99
4	1388	0.5	74
4	2741	1	49
4	3605	1.5	24
4	4219	2	0
4	4690	2.5	0
4	5125	3	0
4	5530	3.5	0
4	5886	4	0
4	6216	4.5	0
4	6546	5	0
4	6860	5.5	0
4	7165	6	0
4	7470	6.5	0
4	7775	7	0
4	8080	7.5	0
4	8385	8	0
4	8690	8.5	0
4	8995	9	0
4	9300	9.5	0
4	9597	10	0
4	9602	10.5	0
5	3	0	99
5	1388	0.5	112
5	2741	1	119
5	3605	1.5	104
5	4219	2	80
5	4690	2.5	55
5	5125	3	30
5	5530	3.5	5
5	5886	4	0
5	6216	4.5	0
5	6546	5	0
5	6860	5.5	0
5	7165	6	0
5	7470	6.5	0
5	7775	7	0
5	8080	7.5	0
5	8385	8	0
5	8690	8.5	0
5	8995	9	0
5	9300	9.5	0
5	9597	10	0
5	9602	10.5	0
6	3	0	0
6	1388	0.5	0
6	2741	1	0
6	3605	1.5	0
6	4219	2	0
6	4690	2.5	0
6	5125	3	0
6	5530	3.5	0
6	5886	4	0
6	6216	4.5	0
6	6546	5	0
6	6860	5.5	0
6	7165	6	0
6	7470	6.5	0
6	7775	7	0
6	8080	7.5	0
6	8385	8	0
6	8690	8.5	0
6	8995	9	0
6	9300	9.5	0
6	9597	10	0
6	9602	10.5	0
7	3	0	0
7	1388	0.5	22
7	2741	1	25
7	3605	1.5	25
7	4219	2	25
7	4690	2.5	3
7	5125	3	0
7	5530	3.5	0
7	5886	4	0
7	6216	4.5	0
7	6546	5	0
7	6860	5.5	0
7	7165	6	0
7	7470	6.5	0
7	7775	7	0
7	8080	7.5	0
7	8385	8	0
7	8690	8.5	0
7	8995	9	0
7	9300	9.5	0
7	9597	10	0
7	9602	10.5	0
8	3	0	0
8	1388	0.5	0
8	2741	1	0
8	3605	1.5	0
8	4219	2	0
8	4690	2.5	0
8	5125	3	0
8	5530	3.5	0
8	5886	4	0
8	6216	4.5	0
8	6546	5	0
8	6860	5.5	0
8	7165	6	0
8	7470	6.5	0
8	7775	7	0
8	8080	7.5	0
8	8385	8	0
8	8690	8.5	0
8	8995	9	0
8	9300	9.5	0
8	9597	10	0
8	9602	10.5	0
9	3	0	0
9	1388	0.5	0
9	2741	1	0
9	3605	1.5	0
9	4219	2	0
9	4690	2.5	0
9	5125	3	0
9	5530	3.5	0
9	5886	4	0
9	6216	4.5	0
9	6546	5	0
9	6860	5.5	0
9	7165	6	0
9	7470	6.5	0
9	7775	7	0
9	8080	7.5	0
9	8385	8	0
9	8690	8.5	0
9	8995	9	0
9	9300	9.5	0
9	9597	10	0
9	9602	10.5	0
10	3	0	0
10	1388	0.5	60
10	2741	1	57
10	3605	1.5	35
10	4219	2	26
10	4690	2.5	25
10	5125	3	25
10	5530	3.5	25
10	5886	4	9
10	6216	4.5	0
10	6546	5	0
10	6860	5.5	0
10	7165	6	0
10	7470	6.5	0
10	7775	7	0
10	8080	7.5	0
10	8385	8	0
10	8690	8.5	0
10	8995	9	0
10	9300	9.5	0
10	9597	10	0
10	9602	10.5	0
11	4	0	1
11	14	0.01	2
11	20	0.02	3
11	26	0.03	4
11	40	0.04	5
11	50	0.05	6
11	64	0.06	7
11	82	0.07	8
11	100	0.08	9
11	118	0.09	10
11	144	0.1	11
11	166	0.11	12
11	192	0.12	13
11	220	0.13	14
11	250	0.14	15
11	278	0.15	16
11	311	0.16	17
11	341	0.17	18
11	374	0.18	19
11	404	0.19	20
11	437	0.2	21
11	467	0.21	22
11	500	0.22	23
11	530	0.23	24
11	563	0.24	25
11	593	0.25	26
11	626	0.26	27
11	656	0.27	28
11	689	0.28	29
11	719	0.29	30
11	752	0.3	31
11	782	0.31	32
11	815	0.32	33
11	845	0.33	34
11	878	0.34	35
11	908	0.35	36
11	941	0.36	37
11	971	0.37	38
11	1004	0.38	39
11	1034	0.39	40
11	1067	0.4	41
11	1097	0.41	42
11	1130	0.42	43
11	1160	0.43	44
11	1193	0.44	45
11	1223	0.45	46
11	1256	0.46	47
11	1286	0.47	48
11	1319	0.48	49
11	1349	0.49	50
11	1382	0.5	51
11	1417	0.51	52
11	1450	0.52	53
11	1480	0.53	54
11	1513	0.54	55
11	1543	0.55	56
11	1576	0.56	57
11	1606	0.57	58
11	1639	0.58	59
11	1669	0.59	60
11	1702	0.6	61
11	1732	0.61	62
11	1765	0.62	63
11	1795	0.63	64
11	1828	0.64	65
11	1858	0.65	66
11	1891	0.66	67
11	1921	0.67	68
11	1952	0.68	69
11	1981	0.69	70
11	2012	0.7	71
11	2039	0.71	72
11	2069	0.72	73
11	2096	0.73	74
11	2123	0.74	75
11	2148	0.75	76
11	2175	0.76	77
11	2198	0.77	78
11	2224	0.78	79
11	2246	0.79	80
11	2270	0.8	81
11	2293	0.81	82
11	2318	0.82	83
11	2339	0.83	84
11	2363	0.84	85
11	2386	0.85	86
11	2411	0.86	87
11	2432	0.87	88
11	2456	0.88	89
11	2479	0.89	90
11	2504	0.9	91
11	2525	0.91	92
11	2549	0.92	93
11	2572	0.93	94
11	2597	0.94	95
11	2618	0.95	96
11	2642	0.96	97
11	2665	0.97	98
11	2690	0.98	99
11	2711	0.99	100
11	2735	1	101
11	2763	1.01	102
11	2788	1.02	103
11	2809	1.03	104
11	2832	1.04	105
11	2854	1.05	106
11	2878	1.06	107
11	2897	1.07	108
11	2919	1.08	109
11	2940	1.09	110
11	2962	1.1	111
11	2980	1.11	112
11	3001	1.12	113
11	3021	1.13	114
11	3043	1.14	115
11	3061	1.15	116
11	3082	1.16	117
11	3102	1.17	118
11	3123	1.18	119
11	3140	1.19	120
11	3160	1.2	121
11	3177	1.21	122
11	3197	1.22	123
11	3213	1.23	124
11	3230	1.24	125
11	3245	1.25	126
11	3264	1.26	127
11	3277	1.27	128
11	3293	1.28	129
11	3308	1.29	130
11	3326	1.3	131
11	3338	1.31	132
11	3354	1.32	133
11	3369	1.33	134
11	3386	1.34	135
11	3398	1.35	136
11	3414	1.36	137
11	3426	1.37	138
11	3443	1.38	139
11	3455	1.39	140
11	3469	1.4	141
11	3481	1.41	142
11	3497	1.42	143
11	3507	1.43	144
11	3521	1.44	145
11	3535	1.45	146
11	3549	1.46	147
11	3559	1.47	148
11	3575	1.48	149
11	3585	1.49	150
11	3599	1.5	151
11	3616	1.51	152
11	3630	1.52	153
11	3640	1.53	154
11	3656	1.54	155
11	3666	1.55	156
11	3680	1.56	157
11	3692	1.57	158
11	3706	1.58	159
11	3716	1.59	160
11	3732	1.6	161
11	3742	1.61	162
11	3756	1.62	163
11	3767	1.63	164
11	3781	1.64	165
11	3791	1.65	166
11	3805	1.66	167
11	3815	1.67	168
11	3829	1.68	169
11	3839	1.69	170
11	3853	1.7	171
11	3863	1.71	172
11	3877	1.72	173
11	3887	1.73	174
11	3901	1.74	175
11	3911	1.75	176
11	3925	1.76	177
11	3935	1.77	178
11	3949	1.78	179
11	3959	1.79	180
11	3973	1.8	181
11	3983	1.81	182
11	3997	1.82	183
11	4007	1.83	184
11	4021	1.84	185
11	4031	1.85	186
11	4045	1.86	187
11	4055	1.87	188
11	4069	1.88	189
11	4079	1.89	190
11	4093	1.9	191
11	4103	1.91	192
11	4117	1.92	193
11	4127	1.93	194
11	4141	1.94	195
11	4151	1.95	196
11	4165	1.96	197
11	4175	1.97	198
11	4189	1.98	199
11	4199	1.99	200
11	4213	2	201
11	4228	2.01	202
11	4242	2.02	203
11	4252	2.03	204
11	4264	2.04	205
11	4274	2.05	206
11	4286	2.06	207
11	4294	2.07	208
11	4306	2.08	209
11	4314	2.09	210
11	4324	2.1	211
11	4332	2.11	212
11	4342	2.12	213
11	4350	2.13	214
11	4360	2.14	215
11	4368	2.15	216
11	4378	2.16	217
11	4386	2.17	218
11	4396	2.18	219
11	4404	2.19	220
11	4414	2.2	221
11	4422	2.21	222
11	4432	2.22	223
11	4440	2.23	224
11	4450	2.24	225
11	4458	2.25	226
11	4468	2.26	227
11	4476	2.27	228
11	4486	2.28	229
11	4494	2.29	230
11	4504	2.3	231
11	4512	2.31	232
11	4522	2.32	233
11	4530	2.33	234
11	4540	2.34	235
11	4548	2.35	236
11	4558	2.36	237
11	4566	2.37	238
11	4576	2.38	239
11	4584	2.39	240
11	4594	2.4	241
11	4602	2.41	242
11	4612	2.42	243
11	4620	2.43	244
11	4630	2.44	245
11	4638	2.45	246
11	4648	2.46	247
11	4656	2.47	248
11	4666	2.48	249
11	4674	2.49	250
11	4684	2.5	251
11	4697	2.51	252
11	4707	2.52	253
11	4715	2.53	254
11	4725	2.54	255
11	4733	2.55	256
11	4743	2.56	257
11	4751	2.57	258
11	4761	2.58	259
11	4769	2.59	260
11	4779	2.6	261
11	4787	2.61	262
11	4797	2.62	263
11	4805	2.63	264
11	4815	2.64	265
11	4823	2.65	266
11	4833	2.66	267
11	4841	2.67	268
11	4851	2.68	269
11	4859	2.69	270
11	4869	2.7	271
11	4877	2.71	272
11	4887	2.72	273
11	4895	2.73	274
11	4905	2.74	275
11	4913	2.75	276
11	4923	2.76	277
11	4931	2.77	278
11	4941	2.78	279
11	4949	2.79	280
11	4959	2.8	281
11	4966	2.81	282
11	4975	2.82	283
11	4982	2.83	284
11	4991	2.84	285
11	4998	2.85	286
11	5007	2.86	287
11	5014	2.87	288
11	5023	2.88	289
11	5030	2.89	290
11	5039	2.9	291
11	5046	2.91	292
11	5055	2.92	293
11	5062	2.93	294
11	5071	2.94	295
11	5078	2.95	296
11	5087	2.96	297
11	5094	2.97	298
11	5103	2.98	299
11	5110	2.99	300
11	5119	3	301
11	5131	3.01	302
11	5140	3.02	303
11	5147	3.03	304
11	5156	3.04	305
11	5163	3.05	306
11	5172	3.06	307
11	5179	3.07	308
11	5188	3.08	309
11	5195	3.09	310
11	5204	3.1	311
11	5211	3.11	312
11	5220	3.12	313
11	5227	3.13	314
11	5236	3.14	315
11	5243	3.15	316
11	5252	3.16	317
11	5259	3.17	318
11	5268	3.18	319
11	5275	3.19	320
11	5284	3.2	321
11	5291	3.21	322
11	5300	3.22	323
11	5307	3.23	324
11	5316	3.24	325
11	5323	3.25	326
11	5332	3.26	327
11	5339	3.27	328
11	5348	3.28	329
11	5355	3.29	330
11	5364	3.3	331
11	5371	3.31	332
11	5380	3.32	333
11	5387	3.33	334
11	5396	3.34	335
11	5403	3.35	336
11	5412	3.36	337
11	5419	3.37	338
11	5428	3.38	339
11	5435	3.39	340
11	5444	3.4	341
11	5451	3.41	342
11	5460	3.42	343
11	5467	3.43	344
11	5476	3.44	345
11	5483	3.45	346
11	5492	3.46	347
11	5499	3.47	348
11	5508	3.48	349
11	5515	3.49	350
11	5524	3.5	351
11	5536	3.51	352
11	5545	3.52	353
11	5552	3.53	354
11	5561	3.54	355
11	5568	3.55	356
11	5577	3.56	357
11	5584	3.57	358
11	5593	3.58	359
11	5600	3.59	360
11	5609	3.6	361
11	5616	3.61	362
11	5625	3.62	363
11	5632	3.63	364
11	5641	3.64	365
11	5648	3.65	366
11	5656	3.66	367
11	5663	3.67	368
11	5671	3.68	369
11	5677	3.69	370
11	5685	3.7	371
11	5691	3.71	372
11	5698	3.72	373
11	5704	3.73	374
11	5711	3.74	375
11	5717	3.75	376
11	5724	3.76	377
11	5730	3.77	378