version 2
run simpleNet-0-20181107-05:29:02-31340
attr configname simpleNet
attr datetime 20181107-05:29:02
attr experiment simpleNet
attr inifile omnetpp.ini
attr iterationvars ""
attr iterationvarsf ""
attr measurement ""
attr network simpleNet
attr processid 31340
attr repetition 0
attr replication #0
attr resultdir results
attr runnumber 0
attr seedset 0

vector 0 simpleNet.node[0] numInQueue:vector ETV
attr interpolationmode none
attr source numInQueue
attr title "total num in queue, vector"
vector 1 simpleNet.node[0] numProcessed:vector ETV
attr interpolationmode none
attr source numProcessed
attr title "num processed in statRate time, vector"
vector 2 simpleNet.node[1] numInQueue:vector ETV
attr interpolationmode none
attr source numInQueue
attr title "total num in queue, vector"
vector 3 simpleNet.node[1] numProcessed:vector ETV
attr interpolationmode none
attr source numProcessed
attr title "num processed in statRate time, vector"
vector 4 simpleNet.node[2] numInQueue:vector ETV
attr interpolationmode none
attr source numInQueue
attr title "total num in queue, vector"
vector 5 simpleNet.node[2] numProcessed:vector ETV
attr interpolationmode none
attr source numProcessed
attr title "num processed in statRate time, vector"
vector 6 simpleNet.node[3] numInQueue:vector ETV
attr interpolationmode none
attr source numInQueue
attr title "total num in queue, vector"
vector 7 simpleNet.node[3] numProcessed:vector ETV
attr interpolationmode none
attr source numProcessed
attr title "num processed in statRate time, vector"
vector 8 simpleNet.node[0] completionTime:vector ETV
attr interpolationmode none
attr source completionTime
attr title "completionTime, vector"
vector 9 simpleNet.node[3] completionTime:vector ETV
attr interpolationmode none
attr source completionTime
attr title "completionTime, vector"
0	2	0	0
0	1526	0.5	0
0	3180	1	0
0	4834	1.5	0
0	6488	2	0
0	8142	2.5	0
0	9796	3	0
0	11450	3.5	0
0	13104	4	0
0	14758	4.5	0
0	16412	5	0
0	18066	5.5	0
0	19720	6	0
0	21374	6.5	0
0	23028	7	0
0	24682	7.5	0
0	26336	8	0
0	27990	8.5	0
0	29644	9	0
0	31298	9.5	0
0	32950	10	0
0	33485	10.5	0
1	2	0	0
1	1526	0.5	129
1	3180	1	150
1	4834	1.5	150
1	6488	2	150
1	8142	2.5	150
1	9796	3	150
1	11450	3.5	150
1	13104	4	150
1	14758	4.5	150
1	16412	5	150
1	18066	5.5	150
1	19720	6	150
1	21374	6.5	150
1	23028	7	150
1	24682	7.5	150
1	26336	8	150
1	27990	8.5	150
1	29644	9	150
1	31298	9.5	150
1	32950	10	150
1	33485	10.5	71
2	3	0	0
2	1527	0.5	43
2	3181	1	118
2	4835	1.5	193
2	6489	2	268
2	8143	2.5	343
2	9797	3	418
2	11451	3.5	493
2	13105	4	568
2	14759	4.5	643
2	16413	5	718
2	18067	5.5	793
2	19721	6	868
2	21375	6.5	943
2	23029	7	1018
2	24683	7.5	1093
2	26337	8	1168
2	27991	8.5	1243
2	29645	9	1318
2	31299	9.5	1393
2	32951	10	1468
2	33486	10.5	1450
3	3	0	0
3	1527	0.5	256
3	3181	1	300
3	4835	1.5	300
3	6489	2	300
3	8143	2.5	300
3	9797	3	300
3	11451	3.5	300
3	13105	4	300
3	14759	4.5	300
3	16413	5	300
3	18067	5.5	300
3	19721	6	300
3	21375	6.5	300
3	23029	7	300
3	24683	7.5	300
3	26337	8	300
3	27991	8.5	300
3	29645	9	300
3	31299	9.5	300
3	32951	10	300
3	33486	10.5	144
4	4	0	0
4	1528	0.5	0
4	3182	1	0
4	4836	1.5	0
4	6490	2	0
4	8144	2.5	0
4	9798	3	0
4	11452	3.5	0
4	13106	4	0
4	14760	4.5	0
4	16414	5	0
4	18068	5.5	0
4	19722	6	0
4	21376	6.5	0
4	23030	7	0
4	24684	7.5	0
4	26338	8	0
4	27992	8.5	0
4	29646	9	0
4	31300	9.5	0
4	32952	10	0
4	33487	10.5	0
5	4	0	0
5	1528	0.5	258
5	3182	1	300
5	4836	1.5	300
5	6490	2	300
5	8144	2.5	300
5	9798	3	300
5	11452	3.5	300
5	13106	4	300
5	14760	4.5	300
5	16414	5	300
5	18068	5.5	300
5	19722	6	300
5	21376	6.5	300
5	23030	7	300
5	24684	7.5	300
5	26338	8	300
5	27992	8.5	300
5	29646	9	300
5	31300	9.5	300
5	32952	10	300
5	33487	10.5	142
6	6	0	0
6	1529	0.5	0
6	3183	1	0
6	4837	1.5	0
6	6491	2	0
6	8145	2.5	0
6	9799	3	0
6	11453	3.5	0
6	13107	4	0
6	14761	4.5	0
6	16415	5	0
6	18069	5.5	0
6	19723	6	0
6	21377	6.5	0
6	23031	7	0
6	24685	7.5	0
6	26339	8	0
6	27993	8.5	0
6	29647	9	0
6	31301	9.5	0
6	32953	10	0
6	33488	10.5	0
7	6	0	0
7	1529	0.5	128
7	3183	1	150
7	4837	1.5	150
7	6491	2	150
7	8145	2.5	150
7	9799	3	150
7	11453	3.5	150
7	13107	4	150
7	14761	4.5	150
7	16415	5	150
7	18069	5.5	150
7	19723	6	150
7	21377	6.5	150
7	23031	7	150
7	24685	7.5	150
7	26339	8	150
7	27993	8.5	150
7	29647	9	150
7	31301	9.5	150
7	32953	10	150
7	33488	10.5	72
8	315	0.18	0.18
8	330	0.183333333333	0.18
8	342	0.186666666667	0.18
8	357	0.19	0.18
8	369	0.193333333333	0.18
8	384	0.196666666667	0.18
8	396	0.2	0.18
8	411	0.203333333333	0.18
8	423	0.206666666667	0.18
8	438	0.21	0.18
8	452	0.213333333333	0.18
8	468	0.216666666667	0.18
8	482	0.22	0.18
8	498	0.223333333333	0.18
8	512	0.226666666667	0.18
8	528	0.23	0.18
8	542	0.233333333333	0.18
8	558	0.236666666667	0.18
8	572	0.24	0.18
8	587	0.243333333333	0.18
8	601	0.246666666667	0.18
8	616	0.25	0.18
8	630	0.253333333333	0.18
8	645	0.256666666667	0.18
8	659	0.26	0.18
8	674	0.263333333333	0.18
8	688	0.266666666667	0.18
8	703	0.27	0.18
8	716	0.273333333333	0.18
8	731	0.276666666667	0.18
8	744	0.28	0.18
8	759	0.283333333333	0.18
8	772	0.286666666667	0.18
8	787	0.29	0.18
8	800	0.293333333333	0.18
8	815	0.296666666667	0.18
8	828	0.3	0.18
8	842	0.303333333333	0.18
8	855	0.306666666667	0.18
8	869	0.31	0.18
8	882	0.313333333333	0.18
8	896	0.316666666667	0.18
8	909	0.32	0.18
8	923	0.323333333333	0.18
8	936	0.326666666667	0.18
8	950	0.33	0.18
8	961	0.333333333333	0.18
8	975	0.336666666667	0.18
8	986	0.34	0.18
8	1000	0.343333333333	0.18
8	1011	0.346666666667	0.18
8	1025	0.35	0.18
8	1036	0.353333333333	0.18
8	1050	0.356666666667	0.18
8	1061	0.36	0.18
8	1079	0.363333333333	0.18
8	1102	0.37	0.183333333333
8	1125	0.376666666667	0.186666666667
8	1148	0.383333333333	0.19
8	1171	0.39	0.193333333333
8	1193	0.396666666667	0.196666666667
8	1215	0.403333333333	0.2
8	1237	0.41	0.203333333333
8	1259	0.416666666667	0.206666666667
8	1281	0.423333333333	0.21
8	1303	0.43	0.213333333333
8	1325	0.436666666667	0.216666666667
8	1347	0.443333333333	0.22
8	1369	0.45	0.223333333333
8	1391	0.456666666667	0.226666666667
8	1413	0.463333333333	0.23
8	1435	0.47	0.233333333333
8	1457	0.476666666667	0.236666666667
8	1479	0.483333333333	0.24
8	1501	0.49	0.243333333333
8	1523	0.496666666667	0.246666666667
8	1549	0.503333333333	0.25
8	1571	0.51	0.253333333333
8	1593	0.516666666667	0.256666666667
8	1615	0.523333333333	0.26
8	1637	0.53	0.263333333333
8	1659	0.536666666667	0.266666666667
8	1681	0.543333333333	0.27
8	1703	0.55	0.273333333333
8	1725	0.556666666667	0.276666666667
8	1747	0.563333333333	0.28
8	1769	0.57	0.283333333333
8	1791	0.576666666667	0.286666666667
8	1813	0.583333333333	0.29
8	1835	0.59	0.293333333333
8	1857	0.596666666667	0.296666666667
8	1879	0.603333333333	0.3
8	1901	0.61	0.303333333333
8	1923	0.616666666667	0.306666666667
8	1945	0.623333333333	0.31
8	1967	0.63	0.313333333333
8	1989	0.636666666667	0.316666666667
8	2011	0.643333333333	0.32
8	2033	0.65	0.323333333333
8	2055	0.656666666667	0.326666666667
8	2077	0.663333333333	0.33
8	2099	0.67	0.333333333333
8	2121	0.676666666667	0.336666666667
8	2143	0.683333333333	0.34
8	2165	0.69	0.343333333333
8	2187	0.696666666667	0.346666666667
8	2209	0.703333333333	0.35
8	2231	0.71	0.353333333333
8	2253	0.716666666667	0.356666666667
8	2275	0.723333333333	0.36
8	2297	0.73	0.363333333333
8	2319	0.736666666667	0.366666666667
8	2341	0.743333333333	0.37
8	2363	0.75	0.373333333333
8	2385	0.756666666667	0.376666666667
8	2407	0.763333333333	0.38
8	2429	0.77	0.383333333333
8	2451	0.776666666667	0.386666666667
8	2473	0.783333333333	0.39
8	2495	0.79	0.393333333333
8	2517	0.796666666667	0.396666666667
8	2539	0.803333333333	0.4
8	2561	0.81	0.403333333333
8	2583	0.816666666667	0.406666666667
8	2605	0.823333333333	0.41
8	2627	0.83	0.413333333333
8	2649	0.836666666667	0.416666666667
8	2671	0.843333333333	0.42
8	2693	0.85	0.423333333333
8	2715	0.856666666667	0.426666666667
8	2737	0.863333333333	0.43
8	2759	0.87	0.433333333333
8	2781	0.876666666667	0.436666666667
8	2803	0.883333333333	0.44
8	2825	0.89	0.443333333333
8	2847	0.896666666667	0.446666666667
8	2869	0.903333333333	0.45
8	2891	0.91	0.453333333333
8	2913	0.916666666667	0.456666666667
8	2935	0.923333333333	0.46
8	2957	0.93	0.463333333333
8	2979	0.936666666667	0.466666666667
8	3001	0.943333333333	0.47
8	3023	0.95	0.473333333333
8	3045	0.956666666667	0.476666666667
8	3067	0.963333333333	0.48
8	3089	0.97	0.483333333333
8	3111	0.976666666667	0.486666666667
8	3133	0.983333333333	0.49
8	3155	0.99	0.493333333333
8	3177	0.996666666667	0.496666666667
8	3203	1.003333333333	0.5
8	3225	1.01	0.503333333333
8	3246	1.016666666667	0.506666666667
8	3269	1.023333333333	0.51
8	3291	1.03	0.513333333333
8	3310	1.036666666667	0.516666666667
8	3335	1.043333333333	0.52
8	3357	1.05	0.523333333333
8	3376	1.056666666667	0.526666666667
8	3401	1.063333333333	0.53
8	3423	1.07	0.533333333333
8	3442	1.076666666667	0.536666666667
8	3467	1.083333333333	0.54
8	3489	1.09	0.543333333333
8	3507	1.096666666667	0.546666666667
8	3533	1.103333333333	0.55
8	3555	1.11	0.553333333333
8	3573	1.116666666667	0.556666666667
8	3599	1.123333333333	0.56
8	3621	1.13	0.563333333333
8	3639	1.136666666667	0.566666666667
8	3665	1.143333333333	0.57
8	3687	1.15	0.573333333333
8	3703	1.156666666667	0.576666666667
8	3731	1.163333333333	0.58
8	3753	1.17	0.583333333333
8	3769	1.176666666667	0.586666666667
8	3797	1.183333333333	0.59
8	3819	1.19	0.593333333333
8	3835	1.196666666667	0.596666666667
8	3863	1.203333333333	0.6
8	3885	1.21	0.603333333333
8	3899	1.216666666667	0.606666666667
8	3929	1.223333333333	0.61
8	3951	1.23	0.613333333333
8	3965	1.236666666667	0.616666666667
8	3995	1.243333333333	0.62
8	4017	1.25	0.623333333333
8	4031	1.256666666667	0.626666666667
8	4061	1.263333333333	0.63
8	4083	1.27	0.633333333333
8	4096	1.276666666667	0.636666666667
8	4127	1.283333333333	0.64
8	4149	1.29	0.643333333333
8	4162	1.296666666667	0.646666666667
8	4193	1.303333333333	0.65
8	4215	1.31	0.653333333333
8	4228	1.316666666667	0.656666666667
8	4259	1.323333333333	0.66
8	4281	1.33	0.663333333333
8	4303	1.33666666667	0.66666666667
8	4325	1.34333333333	0.669999999997
8	4347	1.35	0.673333333333
8	4369	1.35666666667	0.67666666667
8	4391	1.36333333333	0.679999999997
8	4413	1.37	0.683333333333
8	4435	1.37666666667	0.68666666667
8	4457	1.38333333333	0.689999999997
8	4479	1.39	0.693333333333
8	4501	1.39666666667	0.69666666667
8	4523	1.40333333333	0.699999999997
8	4545	1.41	0.703333333333
8	4567	1.41666666667	0.70666666667
8	4589	1.42333333333	0.709999999997
8	4611	1.43	0.713333333333
8	4633	1.43666666667	0.71666666667
8	4655	1.44333333333	0.719999999997
8	4677	1.45	0.723333333333
8	4699	1.45666666667	0.72666666667
8	4721	1.46333333333	0.729999999997
8	4743	1.47	0.733333333333
8	4765	1.47666666667	0.73666666667
8	4787	1.48333333333	0.739999999997
8	4809	1.49	0.743333333333
8	4831	1.49666666667	0.74666666667
8	4857	1.50333333333	0.749999999997
8	4879	1.51	0.753333333333
8	4901	1.51666666667	0.75666666667
8	4923	1.52333333333	0.759999999997
8	4945	1.53	0.763333333333
8	4967	1.53666666667	0.76666666667
8	4989	1.54333333333	0.769999999997
8	5011	1.55	0.773333333333
8	5033	1.55666666667	0.77666666667
8	5055	1.56333333333	0.779999999997
8	5077	1.57	0.783333333333
8	5099	1.57666666667	0.78666666667
8	5121	1.58333333333	0.789999999997
8	5143	1.59	0.793333333333
8	5165	1.59666666667	0.79666666667
8	5187	1.60333333333	0.799999999997
8	5209	1.61	0.803333333333
8	5231	1.61666666667	0.80666666667
8	5253	1.62333333333	0.809999999997
8	5275	1.63	0.813333333333
8	5297	1.63666666667	0.81666666667
8	5319	1.64333333333	0.819999999997
8	5341	1.65	0.823333333333
8	5363	1.65666666667	0.82666666667
8	5385	1.66333333333	0.829999999997
8	5407	1.67	0.833333333333
8	5429	1.67666666667	0.83666666667
8	5451	1.68333333333	0.839999999997
8	5473	1.69	0.843333333333
8	5495	1.69666666667	0.84666666667
8	5517	1.70333333333	0.849999999997
8	5539	1.71	0.853333333333
8	5561	1.71666666667	0.85666666667
8	5583	1.72333333333	0.859999999997
8	5605	1.73	0.863333333333
8	5627	1.73666666667	0.86666666667
8	5649	1.74333333333	0.869999999997
8	5671	1.75	0.873333333333
8	5693	1.75666666667	0.87666666667
8	5715	1.76333333333	0.879999999997
8	5737	1.77	0.883333333333
8	5759	1.77666666667	0.88666666667
8	5781	1.78333333333	0.889999999997
8	5803	1.79	0.893333333333
8	5825	1.79666666667	0.89666666667
8	5847	1.80333333333	0.899999999997
8	5869	1.81	0.903333333333
8	5891	1.81666666667	0.90666666667
8	5913	1.82333333333	0.909999999997
8	5935	1.83	0.913333333333
8	5957	1.83666666667	0.91666666667
8	5979	1.84333333333	0.919999999997
8	6001	1.85	0.923333333333
8	6023	1.85666666667	0.92666666667
8	6045	1.86333333333	0.929999999997
8	6067	1.87	0.933333333333
8	6089	1.87666666667	0.93666666667
8	6111	1.88333333333	0.939999999997
8	6133	1.89	0.943333333333
8	6155	1.89666666667	0.94666666667
8	6177	1.90333333333	0.949999999997
8	6199	1.91	0.953333333333
8	6221	1.91666666667	0.95666666667
8	6243	1.92333333333	0.959999999997
8	6265	1.93	0.963333333333
8	6287	1.93666666667	0.96666666667
8	6309	1.94333333333	0.969999999997
8	6331	1.95	0.973333333333
8	6353	1.95666666667	0.97666666667
8	6375	1.96333333333	0.979999999997
8	6397	1.97	0.983333333333
8	6419	1.97666666667	0.98666666667
8	6441	1.98333333333	0.989999999997
8	6463	1.99	0.993333333333
8	6485	1.99666666667	0.99666666667
8	6511	2.00333333333	1
8	6533	2.01	1.00333333333
8	6555	2.01666666667	1.00666666667
8	6577	2.02333333333	1.01
8	6599	2.03	1.01333333333
8	6621	2.03666666667	1.01666666667
8	6643	2.04333333333	1.02
8	6665	2.05	1.02333333333
8	6687	2.05666666667	1.02666666667
8	6709	2.06333333333	1.03
8	6731	2.07	1.03333333333
8	6753	2.07666666667	1.03666666667
8	6775	2.08333333333	1.04
8	6797	2.09	1.04333333333
8	6819	2.09666666667	1.04666666667
8	6841	2.10333333333	1.05
8	6863	2.11	1.05333333333
8	6885	2.11666666667	1.05666666667
8	6907	2.12333333333	1.06
8	6929	2.13	1.06333333333
8	6951	2.13666666667	1.06666666667
8	6973	2.14333333333	1.07
8	6995	2.15	1.07333333333
8	7017	2.15666666667	1.07666666667
8	7039	2.16333333333	1.08
8	7061	2.17	1.08333333333
8	7083	2.17666666667	1.08666666667
8	7105	2.18333333333	1.09
8	7127	2.19	1.09333333333
8	7149	2.19666666667	1.09666666667
8	7171	2.20333333333	1.1
8	7193	2.21	1.10333333333
8	7215	2.21666666667	1.10666666667
8	7237	2.22333333333	1.11
8	7259	2.23	1.11333333333
8	7281	2.23666666667	1.11666666667
8	7303	2.24333333333	1.12
8	7325	2.25	1.12333333333
8	7347	2.25666666667	1.12666666667
8	7369	2.26333333333	1.13
8	7391	2.27	1.13333333333
8	7413	2.27666666667	1.13666666667
8	7435	2.28333333333	1.14
8	7457	2.29	1.14333333333
8	7479	2.29666666667	1.14666666667
8	7501	2.30333333333	1.15
8	7523	2.31	1.15333333333
8	7545	2.31666666667	1.15666666667
8	7567	2.32333333333	1.16
8	7589	2.33	1.16333333333
8	7611	2.33666666667	1.16666666667
8	7633	2.34333333333	1.17
8	7655	2.35	1.17333333333
8	7677	2.35666666667	1.17666666667
8	7699	2.36333333333	1.18
8	7721	2.37	1.18333333333
8	7743	2.37666666667	1.18666666667
8	7765	2.38333333333	1.19
8	7787	2.39	1.19333333333
8	7809	2.39666666667	1.19666666667
8	7831	2.40333333333	1.2
8	7853	2.41	1.20333333333
8	7875	2.41666666667	1.20666666667
8	7897	2.42333333333	1.21
8	7919	2.43	1.21333333333
8	7941	2.43666666667	1.21666666667
8	7963	2.44333333333	1.22
8	7985	2.45	1.22333333333
8	8007	2.45666666667	1.22666666667
8	8029	2.46333333333	1.23
8	8051	2.47	1.23333333333
8	8073	2.47666666667	1.23666666667
8	8095	2.48333333333	1.24
8	8117	2.49	1.24333333333
8	8139	2.49666666667	1.24666666667
8	8165	2.50333333333	1.25
8	8187	2.51	1.25333333333
8	8209	2.51666666667	1.25666666667
8	8231	2.52333333333	1.26
8	8253	2.53	1.26333333333
8	8275	2.53666666667	1.26666666667
8	8297	2.54333333333	1.27
8	8319	2.55	1.27333333333
8	8341	2.55666666667	1.27666666667
8	8363	2.56333333333	1.28
8	8385	2.57	1.28333333333
8	8407	2.57666666667	1.28666666667
8	8429	2.58333333333	1.29
8	8451	2.59	1.29333333333
8	8473	2.59666666667	1.29666666667
8	8495	2.60333333333	1.3
8	8517	2.61	1.30333333333
8	8539	2.61666666667	1.30666666667
8	8561	2.62333333333	1.31
8	8583	2.63	1.31333333333
8	8605	2.63666666667	1.31666666667
8	8627	2.64333333333	1.32
8	8649	2.65	1.32333333333
8	8671	2.65666666667	1.32666666667
8	8693	2.66333333333	1.33
8	8715	2.67	1.33333333333
8	8737	2.67666666667	1.33666666667
8	8759	2.68333333333	1.34
8	8781	2.69	1.34333333333
8	8803	2.69666666667	1.34666666667
8	8825	2.70333333333	1.35
8	8847	2.71	1.35333333333
8	8869	2.71666666667	1.35666666667
8	8891	2.72333333333	1.36
8	8913	2.73	1.36333333333
8	8935	2.73666666667	1.36666666667
8	8957	2.74333333333	1.37
8	8979	2.75	1.37333333333
8	9001	2.75666666667	1.37666666667
8	9023	2.76333333333	1.38
8	9045	2.77	1.38333333333
8	9067	2.77666666667	1.38666666667
8	9089	2.78333333333	1.39
8	9111	2.79	1.39333333333
8	9133	2.79666666667	1.39666666667
8	9155	2.80333333333	1.4
8	9177	2.81	1.40333333333
8	9199	2.81666666667	1.40666666667
8	9221	2.82333333333	1.41
8	9243	2.83	1.41333333333
8	9265	2.83666666667	1.41666666667
8	9287	2.84333333333	1.42
8	9309	2.85	1.42333333333
8	9331	2.85666666667	1.42666666667
8	9353	2.86333333333	1.43
8	9375	2.87	1.43333333333
8	9397	2.87666666667	1.43666666667
8	9419	2.88333333333	1.44
8	9441	2.89	1.44333333333
8	9463	2.89666666667	1.44666666667
8	9485	2.90333333333	1.45
8	9507	2.91	1.45333333333
8	9529	2.91666666667	1.45666666667
8	9551	2.92333333333	1.46
8	9573	2.93	1.46333333333
8	9595	2.93666666667	1.46666666667
8	9617	2.94333333333	1.47
8	9639	2.95	1.47333333333
8	9661	2.95666666667	1.47666666667
8	9683	2.96333333333	1.48
8	9705	2.97	1.48333333333
8	9727	2.97666666667	1.48666666667
8	9749	2.98333333333	1.49
8	9771	2.99	1.49333333333
8	9793	2.99666666667	1.49666666667
8	9819	3.00333333333	1.5
8	9841	3.01	1.50333333333
8	9863	3.01666666667	1.50666666667
8	9885	3.02333333333	1.51
8	9907	3.03	1.51333333333
8	9929	3.03666666667	1.51666666667
8	9951	3.04333333333	1.52
8	9973	3.05	1.52333333333
8	9995	3.05666666667	1.52666666667
8	10017	3.06333333333	1.53
8	10039	3.07	1.53333333333
8	10061	3.07666666667	1.53666666667
8	10083	3.08333333333	1.54
8	10105	3.09	1.54333333333
8	10127	3.09666666667	1.54666666667
8	10149	3.10333333333	1.55
8	10171	3.11	1.55333333333
8	10193	3.11666666667	1.55666666667
8	10215	3.12333333333	1.56
8	10237	3.13	1.56333333333
8	10259	3.13666666667	1.56666666667
8	10281	3.14333333333	1.57
8	10303	3.15	1.57333333333
8	10325	3.15666666667	1.57666666667
8	10347	3.16333333333	1.58
8	10369	3.17	1.58333333333
8	10391	3.17666666667	1.58666666667
8	10413	3.18333333333	1.59
8	10435	3.19	1.59333333333
8	10457	3.19666666667	1.59666666667
8	10479	3.20333333333	1.6
8	10501	3.21	1.60333333333
8	10523	3.21666666667	1.60666666667
8	10545	3.22333333333	1.61
8	10567	3.23	1.61333333333
8	10589	3.23666666667	1.61666666667
8	10611	3.24333333333	1.62
8	10633	3.25	1.62333333333
8	10655	3.25666666667	1.62666666667
8	10677	3.26333333333	1.63
8	10699	3.27	1.63333333333
8	10721	3.27666666667	1.63666666667
8	10743	3.28333333333	1.64
8	10765	3.29	1.64333333333
8	10787	3.29666666667	1.64666666667
8	10809	3.30333333333	1.65
8	10831	3.31	1.65333333333
8	10853	3.31666666667	1.65666666667
8	10875	3.32333333333	1.66
8	10897	3.33	1.66333333333
8	10919	3.33666666667	1.66666666667
8	10941	3.34333333333	1.67
8	10963	3.35	1.67333333333
8	10985	3.35666666667	1.67666666667
8	11007	3.36333333333	1.68
8	11029	3.37	1.68333333333
8	11051	3.37666666667	1.68666666667
8	11073	3.38333333333	1.69
8	11095	3.39	1.69333333333
8	11117	3.39666666667	1.69666666667
8	11139	3.40333333333	1.7
8	11161	3.41	1.70333333333
8	11183	3.41666666667	1.70666666667
8	11205	3.42333333333	1.71
8	11227	3.43	1.71333333333
8	11249	3.43666666667	1.71666666667
8	11271	3.44333333333	1.72
8	11293	3.45	1.72333333333
8	11315	3.45666666667	1.72666666667
8	11337	3.46333333333	1.73
8	11359	3.47	1.73333333333
8	11381	3.47666666667	1.73666666667
8	11403	3.48333333333	1.74
8	11425	3.49	1.74333333333
8	11447	3.49666666667	1.74666666667
8	11473	3.50333333333	1.75
8	11495	3.51	1.75333333333
8	11517	3.51666666667	1.75666666667
8	11539	3.52333333333	1.76
8	11561	3.53	1.76333333333
8	11583	3.53666666667	1.76666666667
8	11605	3.54333333333	1.77
8	11627	3.55	1.77333333333
8	11649	3.55666666667	1.77666666667
8	11671	3.56333333333	1.78
8	11693	3.57	1.78333333333
8	11715	3.57666666667	1.78666666667
8	11737	3.58333333333	1.79
8	11759	3.59	1.79333333333
8	11781	3.59666666667	1.79666666667
8	11803	3.60333333333	1.8
8	11825	3.61	1.80333333333
8	11847	3.61666666667	1.80666666667
8	11869	3.62333333333	1.81
8	11891	3.63	1.81333333333
8	11913	3.63666666667	1.81666666667
8	11935	3.64333333333	1.82
8	11957	3.65	1.82333333333
8	11979	3.65666666667	1.82666666667
8	12001	3.66333333333	1.83
8	12023	3.67	1.83333333333
8	12045	3.67666666667	1.83666666667
8	12067	3.68333333333	1.84
8	12089	3.69	1.84333333333
8	12111	3.69666666667	1.84666666667
8	12133	3.70333333333	1.85
8	12155	3.71	1.85333333333
8	12177	3.71666666667	1.85666666667
8	12199	3.72333333333	1.86
8	12221	3.73	1.86333333333
8	12243	3.73666666667	1.86666666667
8	12265	3.74333333333	1.87
8	12287	3.75	1.87333333333
8	12309	3.75666666667	1.87666666667
8	12331	3.76333333333	1.88
8	12353	3.77	1.88333333333
8	12375	3.77666666667	1.88666666667
8	12397	3.78333333333	1.89
8	12419	3.79	1.89333333333
8	12441	3.79666666667	1.89666666667
8	12463	3.80333333333	1.9
8	12485	3.81	1.90333333333
8	12507	3.81666666667	1.90666666667
8	12529	3.82333333333	1.91
8	12551	3.83	1.91333333333
8	12573	3.83666666667	1.91666666667
8	12595	3.84333333333	1.92
8	12617	3.85	1.92333333333
8	12639	3.85666666667	1.92666666667
8	12661	3.86333333333	1.93
8	12683	3.87	1.93333333333
8	12705	3.87666666667	1.93666666667
8	12727	3.88333333333	1.94
8	12749	3.89	1.94333333333
8	12771	3.89666666667	1.94666666667
8	12793	3.90333333333	1.95
8	12815	3.91	1.95333333333
8	12837	3.91666666667	1.95666666667
8	12859	3.92333333333	1.96
8	12881	3.93	1.96333333333
8	12903	3.93666666667	1.96666666667
8	12925	3.94333333333	1.97
8	12947	3.95	1.97333333333
8	12969	3.95666666667	1.97666666667
8	12991	3.96333333333	1.98
8	13013	3.97	1.98333333333
8	13035	3.97666666667	1.98666666667
8	13057	3.98333333333	1.99
8	13079	3.99	1.99333333333
8	13101	3.99666666667	1.99666666667
8	13127	4.00333333333	2
8	13149	4.01	2.00333333333
8	13171	4.01666666667	2.00666666667
8	13193	4.02333333333	2.01
8	13215	4.03	2.01333333333
8	13237	4.03666666667	2.01666666667
8	13259	4.04333333333	2.02
8	13281	4.05	2.02333333333
8	13303	4.05666666667	2.02666666667
8	13325	4.06333333333	2.03
8	13347	4.07	2.03333333333
8	13369	4.07666666667	2.03666666667
8	13391	4.08333333333	2.04
8	13413	4.09	2.04333333333
8	13435	4.09666666667	2.04666666667
8	13457	4.10333333333	2.05
8	13479	4.11	2.05333333333
8	13501	4.11666666667	2.05666666667
8	13523	4.12333333333	2.06
8	13545	4.13	2.06333333333
8	13567	4.13666666667	2.06666666667
8	13589	4.14333333333	2.07
8	13611	4.15	2.07333333333
8	13633	4.15666666667	2.07666666667
8	13655	4.16333333333	2.08
8	13677	4.17	2.08333333333
8	13699	4.17666666667	2.08666666667
8	13721	4.18333333333	2.09
8	13743	4.19	2.09333333333
8	13765	4.19666666667	2.09666666667
8	13787	4.20333333333	2.1
8	13809	4.21	2.10333333333
8	13831	4.21666666667	2.10666666667
8	13853	4.22333333333	2.11
8	13875	4.23	2.11333333333
8	13897	4.23666666667	2.11666666667
8	13919	4.24333333333	2.12
8	13941	4.25	2.12333333333
8	13963	4.25666666667	2.12666666667
8	13985	4.26333333333	2.13
8	14007	4.27	2.13333333333
8	14029	4.27666666667	2.13666666667
8	14051	4.28333333333	2.14
8	14073	4.29	2.14333333333
8	14095	4.29666666667	2.14666666667
8	14117	4.30333333333	2.15
8	14139	4.31	2.15333333333
8	14161	4.31666666667	2.15666666667
8	14183	4.32333333333	2.16
8	14205	4.33	2.16333333333
8	14227	4.33666666667	2.16666666667
8	14249	4.34333333333	2.17
8	14271	4.35	2.17333333333
8	14293	4.35666666667	2.17666666667
8	14315	4.36333333333	2.18
8	14337	4.37	2.18333333333
8	14359	4.37666666667	2.18666666667
8	14381	4.38333333333	2.19
8	14403	4.39	2.19333333333
8	14425	4.39666666667	2.19666666667
8	14447	4.40333333333	2.2
8	14469	4.41	2.20333333333
8	14491	4.41666666667	2.20666666667
8	14513	4.42333333333	2.21
8	14535	4.43	2.21333333333
8	14557	4.43666666667	2.21666666667
8	14579	4.44333333333	2.22
8	14601	4.45	2.22333333333
8	14623	4.45666666667	2.22666666667
8	14645	4.46333333333	2.23
8	14667	4.47	2.23333333333
8	14689	4.47666666667	2.23666666667
8	14711	4.48333333333	2.24
8	14733	4.49	2.24333333333
8	14755	4.49666666667	2.24666666667
8	14781	4.50333333333	2.25
8	14803	4.51	2.25333333333
8	14825	4.51666666667	2.25666666667
8	14847	4.52333333333	2.26
8	14869	4.53	2.26333333333
8	14891	4.53666666667	2.26666666667
8	14913	4.54333333333	2.27
8	14935	4.55	2.27333333333
8	14957	4.55666666667	2.27666666667
8	14979	4.56333333333	2.28
8	15001	4.57	2.28333333333
8	15023	4.57666666667	2.28666666667
8	15045	4.58333333333	2.29
8	15067	4.59	2.29333333333
8	15089	4.59666666667	2.29666666667
8	15111	4.60333333333	2.3
8	15133	4.61	2.30333333333
8	15155	4.61666666667	2.30666666667
8	15177	4.62333333333	2.31
8	15199	4.63	2.31333333333
8	15221	4.63666666667	2.31666666667
8	15243	4.64333333333	2.32
8	15265	4.65	2.32333333333
8	15287	4.65666666667	2.32666666667
8	15309	4.66333333333	2.33
8	15331	4.67	2.33333333333
8	15353	4.67666666667	2.33666666667
8	15375	4.68333333333	2.34
8	15397	4.69	2.34333333333
8	15419	4.69666666667	2.34666666667
8	15441	4.70333333333	2.35
8	15463	4.71	2.35333333333
8	15485	4.71666666667	2.35666666667
8	15507	4.72333333333	2.36
8	15529	4.73	2.36333333333
8	15551	4.73666666667	2.36666666667
8	15573	4.74333333333	2.37
8	15595	4.75	2.37333333333
8	15617	4.75666666667	2.37666666667
8	15639	4.76333333333	2.38
8	15661	4.77	2.38333333333
8	15683	4.77666666667	2.38666666667
8	15705	4.78333333333	2.39
8	15727	4.79	2.39333333333
8	15749	4.79666666667	2.39666666667
8	15771	4.80333333333	2.4
8	15793	4.81	2.40333333333
8	15815	4.81666666667	2.40666666667
8	15837	4.82333333333	2.41
8	15859	4.83	2.41333333333
8	15881	4.83666666667	2.41666666667
8	15903	4.84333333333	2.42
8	15925	4.85	2.42333333333
8	15947	4.85666666667	2.42666666667
8	15969	4.86333333333	2.43
8	15991	4.87	2.43333333333
8	16013	4.87666666667	2.43666666667
8	16035	4.88333333333	2.44
8	16057	4.89	2.44333333333
8	16079	4.89666666667	2.44666666667
8	16101	4.90333333333	2.45
8	16123	4.91	2.45333333333
8	16145	4.91666666667	2.45666666667
8	16167	4.92333333333	2.46
8	16189	4.93	2.46333333333
8	16211	4.93666666667	2.46666666667
8	16233	4.94333333333	2.47
8	16255	4.95	2.47333333333
8	16277	4.95666666667	2.47666666667
8	16299	4.96333333333	2.48
8	16321	4.97	2.48333333333
8	16343	4.97666666667	2.48666666667
8	16365	4.98333333333	2.49
8	16387	4.99	2.49333333333
8	16409	4.99666666667	2.49666666667
8	16435	5.00333333333	2.5
8	16457	5.01	2.50333333333
8	16479	5.01666666667	2.50666666667
8	16501	5.02333333333	2.51
8	16523	5.03	2.51333333333
8	16545	5.03666666667	2.51666666667
8	16567	5.04333333333	2.52
8	16589	5.05	2.52333333333
8	16611	5.05666666667	2.52666666667
8	16633	5.06333333333	2.53
8	16655	5.07	2.53333333333
8	16677	5.07666666667	2.53666666667
8	16699	5.08333333333	2.54
8	16721	5.09	2.54333333333
8	16743	5.09666666667	2.54666666667
8	16765	5.10333333333	2.55
8	16787	5.11	2.55333333333
8	16809	5.11666666667	2.55666666667
8	16831	5.12333333333	2.56
8	16853	5.13	2.56333333333
8	16875	5.13666666667	2.56666666667
8	16897	5.14333333333	2.57
8	16919	5.15	2.57333333333
8	16941	5.15666666667	2.57666666667
8	16963	5.16333333333	2.58
8	16985	5.17	2.58333333333
8	17007	5.17666666667	2.58666666667
8	17029	5.18333333333	2.59
8	17051	5.19	2.59333333333
8	17073	5.19666666667	2.59666666667
8	17095	5.20333333333	2.6
8	17117	5.21	2.60333333333
8	17139	5.21666666667	2.60666666667
8	17161	5.22333333333	2.61
8	17183	5.23	2.61333333333
8	17205	5.23666666667	2.61666666667
8	17227	5.24333333333	2.62
8	17249	5.25	2.62333333333
8	17271	5.25666666667	2.62666666667
8	17293	5.26333333333	2.63
8	17315	5.27	2.63333333333
8	17337	5.27666666667	2.63666666667
8	17359	5.28333333333	2.64
8	17381	5.29	2.64333333333
8	17403	5.29666666667	2.64666666667
8	17425	5.30333333333	2.65
8	17447	5.31	2.65333333333
8	17469	5.31666666667	2.65666666667
8	17491	5.32333333333	2.66
8	17513	5.33	2.66333333333
8	17535	5.33666666667	2.66666666667
8	17557	5.34333333333	2.67
8	17579	5.35	2.67333333333
8	17601	5.35666666667	2.67666666667
8	17623	5.36333333333	2.68
8	17645	5.37	2.68333333333
8	17667	5.37666666667	2.68666666667
8	17689	5.38333333333	2.69
8	17711	5.39	2.69333333333
8	17733	5.39666666667	2.69666666667
8	17755	5.40333333333	2.7
8	17777	5.41	2.70333333333
8	17799	5.41666666667	2.70666666667
8	17821	5.42333333333	2.71
8	17843	5.43	2.71333333333
8	17865	5.43666666667	2.71666666667
8	17887	5.44333333333	2.72
8	17909	5.45	2.72333333333
8	17931	5.45666666667	2.72666666667
8	17953	5.46333333333	2.73
8	17975	5.47	2.73333333333
8	17997	5.47666666667	2.73666666667
8	18019	5.48333333333	2.74
8	18041	5.49	2.74333333333
8	18063	5.49666666667	2.74666666667
8	18089	5.50333333333	2.75
8	18111	5.51	2.75333333333
8	18133	5.51666666667	2.75666666667
8	18155	5.52333333333	2.76
8	18177	5.53	2.76333333333
8	18199	5.53666666667	2.76666666667
8	18221	5.54333333333	2.77
8	18243	5.55	2.77333333333
8	18265	5.55666666667	2.77666666667
8	18287	5.56333333333	2.78
8	18309	5.57	2.78333333333
8	18331	5.57666666667	2.78666666667
8	18353	5.58333333333	2.79
8	18375	5.59	2.79333333333
8	18397	5.59666666667	2.79666666667
8	18419	5.60333333333	2.8
8	18441	5.61	2.80333333333
8	18463	5.61666666667	2.80666666667
8	18485	5.62333333333	2.81
8	18507	5.63	2.81333333333
8	18529	5.63666666667	2.81666666667
8	18551	5.64333333333	2.82
8	18573	5.65	2.82333333333
8	18595	5.65666666667	2.82666666667
8	18617	5.66333333333	2.83
8	18639	5.67	2.83333333333
8	18661	5.67666666667	2.83666666667
8	18683	5.68333333333	2.84
8	18705	5.69	2.84333333333
8	18727	5.69666666667	2.84666666667
8	18749	5.70333333333	2.85
8	18771	5.71	2.85333333333
8	18793	5.71666666667	2.85666666667
8	18815	5.72333333333	2.86
8	18837	5.73	2.86333333333
8	18859	5.73666666667	2.86666666667
8	18881	5.74333333333	2.87
8	18903	5.75	2.87333333333
8	18925	5.75666666667	2.87666666667
8	18947	5.76333333333	2.88
8	18969	5.77	2.88333333333