<<<<<<< HEAD
<<<<<<< HEAD
file 1623 1542411959                                            
version 2
run simpleNet-0-20181116-15:45:35-31891
attr configname simpleNet
attr datetime 20181116-15:45:35
=======
file 6939 1542584713                                            
version 2
run simpleNet-0-20181118-18:45:11-1999
attr configname simpleNet
attr datetime 20181118-18:45:11
>>>>>>> added figure4b topology and workload generator
=======
file 11746 1542741078                                           
version 2
run simpleNet-0-20181120-14:11:16-7896
attr configname simpleNet
attr datetime 20181120-14:11:16
>>>>>>> made dynamically sized queue of signals "numInQueuePerChannelSignals"
attr experiment simpleNet
attr inifile omnetpp.ini
attr iterationvars ""
attr iterationvarsf ""
attr measurement ""
attr network simpleNet
<<<<<<< HEAD
<<<<<<< HEAD
attr processid 31891
=======
attr processid 1999
>>>>>>> added figure4b topology and workload generator
=======
attr processid 7896
>>>>>>> made dynamically sized queue of signals "numInQueuePerChannelSignals"
attr repetition 0
attr replication #0
attr resultdir results
attr runnumber 0
attr seedset 0

<<<<<<< HEAD
vector 0 simpleNet.node[0] numInQueue:vector ETV
attr interpolationmode none
attr source numInQueue
attr title "total num in queue, vector"
vector 1 simpleNet.node[0] numProcessed:vector ETV
attr interpolationmode none
attr source numProcessed
<<<<<<< HEAD
attr title "num processing events in statRate, vector"
0	661 8 2 2 0 0 1 0 0 0 0
1	669 8 2 2 0 0 1 0 0 0 0
=======
attr title "num processing events in statRate time, vector"
>>>>>>> added figure4b topology and workload generator
vector 2 simpleNet.node[1] numInQueue:vector ETV
attr interpolationmode none
attr source numInQueue
attr title "total num in queue, vector"
vector 3 simpleNet.node[1] numProcessed:vector ETV
attr interpolationmode none
attr source numProcessed
<<<<<<< HEAD
attr title "num processing events in statRate, vector"
2	976 8 3 3 0 0 1 0 0 0 0
3	984 8 3 3 0 0 1 0 0 0 0
=======
attr title "num processing events in statRate time, vector"
>>>>>>> added figure4b topology and workload generator
vector 4 simpleNet.node[2] numInQueue:vector ETV
attr interpolationmode none
attr source numInQueue
attr title "total num in queue, vector"
vector 5 simpleNet.node[2] numProcessed:vector ETV
attr interpolationmode none
attr source numProcessed
<<<<<<< HEAD
attr title "num processing events in statRate, vector"
4	1291 8 4 4 0 0 1 0 0 0 0
5	1299 8 4 4 0 0 1 0 0 0 0
=======
attr title "num processing events in statRate time, vector"
>>>>>>> added figure4b topology and workload generator
vector 6 simpleNet.node[3] numInQueue:vector ETV
attr interpolationmode none
attr source numInQueue
attr title "total num in queue, vector"
vector 7 simpleNet.node[3] numProcessed:vector ETV
attr interpolationmode none
attr source numProcessed
<<<<<<< HEAD
attr title "num processing events in statRate, vector"
6	1606 8 6 6 0 0 1 0 0 0 0
7	1614 8 6 6 0 0 1 0 0 0 0
=======
attr title "num processing events in statRate time, vector"
vector 8 simpleNet.node[4] numInQueue:vector ETV
attr interpolationmode none
attr source numInQueue
attr title "total num in queue, vector"
vector 9 simpleNet.node[4] numProcessed:vector ETV
attr interpolationmode none
attr source numProcessed
attr title "num processing events in statRate time, vector"
vector 10 simpleNet.node[0] completionTime:vector ETV
attr interpolationmode none
attr source completionTime
attr title "completionTime, vector"
vector 11 simpleNet.node[1] completionTime:vector ETV
attr interpolationmode none
attr source completionTime
attr title "completionTime, vector"
vector 12 simpleNet.node[2] completionTime:vector ETV
attr interpolationmode none
attr source completionTime
attr title "completionTime, vector"
vector 13 simpleNet.node[3] completionTime:vector ETV
attr interpolationmode none
attr source completionTime
attr title "completionTime, vector"
vector 14 simpleNet.node[4] completionTime:vector ETV
attr interpolationmode none
attr source completionTime
attr title "completionTime, vector"
0	2605 240 3 626 0 10.5 22 0 0 0 0
1	2845 240 3 626 0 10.5 22 0 3 40 100
2	3085 240 5 627 0 10.5 22 0 0 0 0
3	3325 240 5 627 0 10.5 22 0 3 40 100
4	3565 240 8 628 0 10.5 22 0 0 0 0
5	3805 240 8 628 0 10.5 22 0 4 70 250
6	4045 241 11 629 0 10.5 22 0 0 0 0
7	4286 241 11 629 0 10.5 22 0 3 60 180
8	4527 241 13 630 0 10.5 22 0 0 0 0
9	4768 241 13 630 0 10.5 22 0 3 50 130
10	5009 296 22 581 0.06 9.06 20 60 60 1200 72000
11	5305 297 24 611 0.06 9.56 20 60 60 1200 72000
12	5602 445 25 612 0.06 9.56 30 60 60 1800 108000
13	6047 594 27 614 0.06 9.56 40 60 60 2400 144000
14	6641 297 29 615 0.06 9.56 20 60 60 1200 72000
>>>>>>> added figure4b topology and workload generator
=======
vector 0 simpleNet.node[0] "numInQueuePerChannelSignal(dest node 1):vector" ETV
vector 1 simpleNet.node[0] "numInQueuePerChannelSignal(dest node 3):vector" ETV
vector 2 simpleNet.node[0] "numInQueuePerChannelSignal(dest node 4):vector" ETV
vector 3 simpleNet.node[0] numInQueue:vector ETV
attr interpolationmode none
attr source numInQueue
attr title "total num in queue, vector"
vector 4 simpleNet.node[0] numProcessed:vector ETV
attr interpolationmode none
attr source numProcessed
attr title "num processing events in statRate time, vector"
vector 5 simpleNet.node[1] "numInQueuePerChannelSignal(dest node 0):vector" ETV
vector 6 simpleNet.node[1] "numInQueuePerChannelSignal(dest node 2):vector" ETV
vector 7 simpleNet.node[1] "numInQueuePerChannelSignal(dest node 3):vector" ETV
vector 8 simpleNet.node[1] numInQueue:vector ETV
attr interpolationmode none
attr source numInQueue
attr title "total num in queue, vector"
vector 9 simpleNet.node[1] numProcessed:vector ETV
attr interpolationmode none
attr source numProcessed
attr title "num processing events in statRate time, vector"
vector 10 simpleNet.node[2] "numInQueuePerChannelSignal(dest node 1):vector" ETV
vector 11 simpleNet.node[2] "numInQueuePerChannelSignal(dest node 3):vector" ETV
vector 12 simpleNet.node[2] "numInQueuePerChannelSignal(dest node 4):vector" ETV
vector 13 simpleNet.node[2] numInQueue:vector ETV
attr interpolationmode none
attr source numInQueue
attr title "total num in queue, vector"
vector 14 simpleNet.node[2] numProcessed:vector ETV
attr interpolationmode none
attr source numProcessed
attr title "num processing events in statRate time, vector"
vector 15 simpleNet.node[3] "numInQueuePerChannelSignal(dest node 0):vector" ETV
vector 16 simpleNet.node[3] "numInQueuePerChannelSignal(dest node 1):vector" ETV
vector 17 simpleNet.node[3] "numInQueuePerChannelSignal(dest node 2):vector" ETV
vector 18 simpleNet.node[3] numInQueue:vector ETV
attr interpolationmode none
attr source numInQueue
attr title "total num in queue, vector"
vector 19 simpleNet.node[3] numProcessed:vector ETV
attr interpolationmode none
attr source numProcessed
attr title "num processing events in statRate time, vector"
vector 20 simpleNet.node[4] "numInQueuePerChannelSignal(dest node 0):vector" ETV
vector 21 simpleNet.node[4] "numInQueuePerChannelSignal(dest node 2):vector" ETV
vector 22 simpleNet.node[4] numInQueue:vector ETV
attr interpolationmode none
attr source numInQueue
attr title "total num in queue, vector"
vector 23 simpleNet.node[4] numProcessed:vector ETV
attr interpolationmode none
attr source numProcessed
attr title "num processing events in statRate time, vector"
vector 24 simpleNet.node[0] completionTime:vector ETV
attr interpolationmode none
attr source completionTime
attr title "completionTime, vector"
vector 25 simpleNet.node[1] completionTime:vector ETV
attr interpolationmode none
attr source completionTime
attr title "completionTime, vector"
vector 26 simpleNet.node[2] completionTime:vector ETV
attr interpolationmode none
attr source completionTime
attr title "completionTime, vector"
vector 27 simpleNet.node[3] completionTime:vector ETV
attr interpolationmode none
attr source completionTime
attr title "completionTime, vector"
vector 28 simpleNet.node[4] completionTime:vector ETV
attr interpolationmode none
attr source completionTime
attr title "completionTime, vector"
0	3739 240 3 626 0 10.5 22 0 0 0 0
1	3979 240 3 626 0 10.5 22 0 0 0 0
2	4219 240 3 626 0 10.5 22 0 0 0 0
3	4459 240 3 626 0 10.5 22 0 0 0 0
4	4699 240 3 626 0 10.5 22 0 3 40 100
5	4939 240 5 627 0 10.5 22 0 0 0 0
6	5179 240 5 627 0 10.5 22 0 0 0 0
7	5419 240 5 627 0 10.5 22 0 0 0 0
8	5659 240 5 627 0 10.5 22 0 0 0 0
9	5899 240 5 627 0 10.5 22 0 3 40 100
10	6139 262 8 628 0 10.5 22 0 0 0 0
11	6401 262 8 628 0 10.5 22 0 0 0 0
12	6663 262 8 628 0 10.5 22 0 0 0 0
13	6925 262 8 628 0 10.5 22 0 0 0 0
14	7187 262 8 628 0 10.5 22 0 4 70 250
15	7449 263 11 629 0 10.5 22 0 0 0 0
16	7712 263 11 629 0 10.5 22 0 0 0 0
17	7975 263 11 629 0 10.5 22 0 0 0 0
18	8238 263 11 629 0 10.5 22 0 0 0 0
19	8501 263 11 629 0 10.5 22 0 3 60 180
20	8764 263 13 630 0 10.5 22 0 0 0 0
21	9027 263 13 630 0 10.5 22 0 0 0 0
22	9290 263 13 630 0 10.5 22 0 0 0 0
23	9553 263 13 630 0 10.5 22 0 3 50 130
24	9816 296 22 581 0.06 9.06 20 60 60 1200 72000
25	10112 297 24 611 0.06 9.56 20 60 60 1200 72000
26	10409 445 25 612 0.06 9.56 30 60 60 1800 108000
27	10854 594 27 614 0.06 9.56 40 60 60 2400 144000
28	11448 297 29 615 0.06 9.56 20 60 60 1200 72000
>>>>>>> made dynamically sized queue of signals "numInQueuePerChannelSignals"

