version 2
run simpleNet-0-20181107-06:02:35-31492
attr configname simpleNet
attr datetime 20181107-06:02:35
attr experiment simpleNet
attr inifile omnetpp.ini
attr iterationvars ""
attr iterationvarsf ""
attr measurement ""
attr network simpleNet
attr processid 31492
attr repetition 0
attr replication #0
attr resultdir results
attr runnumber 0
attr seedset 0

vector 0 simpleNet.node[0] numInQueue:vector ETV
attr interpolationmode none
attr source numInQueue
attr title "total num in queue, vector"
vector 1 simpleNet.node[0] numProcessed:vector ETV
attr interpolationmode none
attr source numProcessed
attr title "num processed in statRate time, vector"
vector 2 simpleNet.node[1] numInQueue:vector ETV
attr interpolationmode none
attr source numInQueue
attr title "total num in queue, vector"
vector 3 simpleNet.node[1] numProcessed:vector ETV
attr interpolationmode none
attr source numProcessed
attr title "num processed in statRate time, vector"
vector 4 simpleNet.node[2] numInQueue:vector ETV
attr interpolationmode none
attr source numInQueue
attr title "total num in queue, vector"
vector 5 simpleNet.node[2] numProcessed:vector ETV
attr interpolationmode none
attr source numProcessed
attr title "num processed in statRate time, vector"
vector 6 simpleNet.node[3] numInQueue:vector ETV
attr interpolationmode none
attr source numInQueue
attr title "total num in queue, vector"
vector 7 simpleNet.node[3] numProcessed:vector ETV
attr interpolationmode none
attr source numProcessed
attr title "num processed in statRate time, vector"
vector 8 simpleNet.node[0] completionTime:vector ETV
attr interpolationmode none
attr source completionTime
attr title "completionTime, vector"
vector 9 simpleNet.node[3] completionTime:vector ETV
attr interpolationmode none
attr source completionTime
attr title "completionTime, vector"
0	2	0	0
0	2997	0.5	0
0	6711	1	0
0	10355	1.5	0
0	14009	2	0
0	17723	2.5	0
0	21367	3	0
0	25021	3.5	0
0	28735	4	0
0	32379	4.5	0
0	36033	5	0
0	39747	5.5	0
0	43391	6	0
0	47045	6.5	0
0	50759	7	0
0	54403	7.5	0
0	58057	8	0
0	61771	8.5	0
0	65415	9	0
0	69069	9.5	0
0	72781	10	0
0	75455	10.5	0
1	2	0	0
1	2997	0.5	235
1	6711	1	350
1	10355	1.5	315
1	14009	2	335
1	17723	2.5	350
1	21367	3	315
1	25021	3.5	335
1	28735	4	350
1	32379	4.5	315
1	36033	5	335
1	39747	5.5	350
1	43391	6	315
1	47045	6.5	335
1	50759	7	350
1	54403	7.5	315
1	58057	8	335
1	61771	8.5	350
1	65415	9	315
1	69069	9.5	335
1	72781	10	350
1	75455	10.5	315
2	3	0	0
2	2998	0.5	75
2	6712	1	150
2	10356	1.5	235
2	14010	2	325
2	17724	2.5	400
2	21368	3	485
2	25022	3.5	575
2	28736	4	650
2	32380	4.5	735
2	36034	5	825
2	39748	5.5	900
2	43392	6	985
2	47046	6.5	1075
2	50760	7	1150
2	54404	7.5	1235
2	58058	8	1325
2	61772	8.5	1400
2	65416	9	1485
2	69070	9.5	1575
2	72782	10	1650
2	75456	10.5	1500
3	3	0	0
3	2998	0.5	475
3	6712	1	680
3	10356	1.5	655
3	14010	2	665
3	17724	2.5	680
3	21368	3	655
3	25022	3.5	665
3	28736	4	680
3	32380	4.5	655
3	36034	5	665
3	39748	5.5	680
3	43392	6	655
3	47046	6.5	665
3	50760	7	680
3	54404	7.5	655
3	58058	8	665
3	61772	8.5	680
3	65416	9	655
3	69070	9.5	665
3	72782	10	680
3	75456	10.5	655
4	4	0	0
4	2999	0.5	75
4	6713	1	150
4	10357	1.5	235
4	14011	2	325
4	17725	2.5	400
4	21369	3	485
4	25023	3.5	575
4	28737	4	650
4	32381	4.5	735
4	36035	5	825
4	39749	5.5	900
4	43393	6	985
4	47047	6.5	1075
4	50761	7	1150
4	54405	7.5	1235
4	58059	8	1325
4	61773	8.5	1400
4	65417	9	1485
4	69071	9.5	1575
4	72783	10	1650
4	75457	10.5	1500
5	4	0	0
5	2999	0.5	475
5	6713	1	680
5	10357	1.5	655
5	14011	2	665
5	17725	2.5	680
5	21369	3	655
5	25023	3.5	665
5	28737	4	680
5	32381	4.5	655
5	36035	5	665
5	39749	5.5	680
5	43393	6	655
5	47047	6.5	665
5	50761	7	680
5	54405	7.5	655
5	58059	8	665
5	61773	8.5	680
5	65417	9	655
5	69071	9.5	665
5	72783	10	680
5	75457	10.5	655
6	6	0	0
6	3000	0.5	0
6	6714	1	0
6	10358	1.5	0
6	14012	2	0
6	17726	2.5	0
6	21370	3	0
6	25024	3.5	0
6	28738	4	0
6	32382	4.5	0
6	36036	5	0
6	39750	5.5	0
6	43394	6	0
6	47048	6.5	0
6	50762	7	0
6	54406	7.5	0
6	58060	8	0
6	61774	8.5	0
6	65418	9	0
6	69072	9.5	0
6	72784	10	0
6	75458	10.5	0
7	6	0	0
7	3000	0.5	235
7	6714	1	350
7	10358	1.5	315
7	14012	2	335
7	17726	2.5	350
7	21370	3	315
7	25024	3.5	335
7	28738	4	350
7	32382	4.5	315
7	36036	5	335
7	39750	5.5	350
7	43394	6	315
7	47048	6.5	335
7	50762	7	350
7	54406	7.5	315
7	58060	8	335
7	61774	8.5	350
7	65418	9	315
7	69072	9.5	335
7	72784	10	350
7	75458	10.5	315
8	658	0.18	0.18
8	674	0.182	0.18
8	690	0.184	0.18
8	706	0.186	0.18
8	722	0.188	0.18
8	736	0.19	0.18
8	750	0.192	0.18
8	764	0.194	0.18
8	778	0.196	0.18
8	792	0.198	0.18
8	806	0.2	0.18
8	820	0.202	0.18
8	834	0.204	0.18
8	848	0.206	0.18
8	862	0.208	0.18
8	876	0.21	0.18
8	894	0.212	0.18
8	912	0.214	0.18
8	930	0.216	0.18
8	948	0.218	0.18
8	964	0.22	0.18
8	980	0.222	0.18
8	996	0.224	0.18
8	1012	0.226	0.18
8	1028	0.228	0.18
8	1044	0.23	0.18
8	1060	0.232	0.18
8	1076	0.234	0.18
8	1092	0.236	0.18
8	1108	0.238	0.18
8	1124	0.24	0.18
8	1142	0.242	0.18
8	1160	0.244	0.18
8	1178	0.246	0.18
8	1196	0.248	0.18
8	1210	0.25	0.18
8	1224	0.252	0.18
8	1238	0.254	0.18
8	1252	0.256	0.18
8	1266	0.258	0.18
8	1280	0.26	0.18
8	1294	0.262	0.18
8	1308	0.264	0.18
8	1322	0.266	0.18
8	1336	0.268	0.18
8	1350	0.27	0.18
8	1366	0.272	0.18
8	1382	0.274	0.18
8	1398	0.276	0.18
8	1414	0.278	0.18
8	1760	0.33	0.23
8	1776	0.332	0.23
8	1792	0.334	0.23
8	1808	0.336	0.23
8	1824	0.338	0.23
8	1838	0.34	0.23
8	1852	0.342	0.23
8	1866	0.344	0.23
8	1880	0.346	0.23
8	1894	0.348	0.23
8	1908	0.35	0.23
8	1922	0.352	0.23
8	1936	0.354	0.23
8	1950	0.356	0.23
8	1964	0.358	0.23
8	1978	0.36	0.23
8	1996	0.362	0.23
8	2014	0.364	0.23
8	2032	0.366	0.23
8	2050	0.368	0.23
8	2066	0.37	0.23
8	2082	0.372	0.23
8	2098	0.374	0.23
8	2114	0.376	0.23
8	2130	0.378	0.23
8	2146	0.38	0.23
8	2162	0.382	0.23
8	2178	0.384	0.23
8	2194	0.386	0.23
8	2210	0.388	0.23
8	2226	0.39	0.23
8	2244	0.392	0.23
8	2262	0.394	0.23
8	2280	0.396	0.23
8	2298	0.398	0.23
8	2312	0.4	0.23
8	2326	0.402	0.23
8	2340	0.404	0.23
8	2354	0.406	0.23
8	2368	0.408	0.23
8	2382	0.41	0.23
8	2396	0.412	0.23
8	2410	0.414	0.23
8	2424	0.416	0.23
8	2438	0.418	0.23
8	2452	0.42	0.23
8	2468	0.422	0.23
8	2484	0.424	0.23
8	2500	0.426	0.23
8	2516	0.428	0.23
8	2858	0.48	0.28
8	2874	0.482	0.28
8	2890	0.484	0.28
8	2906	0.486	0.28
8	2922	0.488	0.28
8	2936	0.49	0.28
8	2950	0.492	0.28
8	2964	0.494	0.28
8	2978	0.496	0.28
8	2992	0.498	0.28
8	3010	0.5	0.28
8	3024	0.502	0.28
8	3038	0.504	0.28
8	3052	0.506	0.28
8	3066	0.508	0.28
8	3080	0.51	0.28
8	3098	0.512	0.28
8	3116	0.514	0.28
8	3134	0.516	0.28
8	3152	0.518	0.28
8	3168	0.52	0.28
8	3184	0.522	0.28
8	3200	0.524	0.28
8	3216	0.526	0.28
8	3232	0.528	0.28
8	3248	0.53	0.28
8	3264	0.532	0.28
8	3280	0.534	0.28
8	3296	0.536	0.28
8	3312	0.538	0.28
8	3328	0.54	0.28
8	3346	0.542	0.28
8	3364	0.544	0.28
8	3382	0.546	0.28
8	3400	0.548	0.28
8	3414	0.55	0.28
8	3428	0.552	0.28
8	3442	0.554	0.28
8	3456	0.556	0.28
8	3470	0.558	0.28
8	3484	0.56	0.28
8	3498	0.562	0.28
8	3512	0.564	0.28
8	3526	0.566	0.28
8	3540	0.568	0.28
8	3554	0.57	0.28
8	3570	0.572	0.28
8	3586	0.574	0.28
8	3602	0.576	0.28
8	3618	0.578	0.28
8	3964	0.63	0.33
8	3980	0.632	0.33
8	3996	0.634	0.33
8	4012	0.636	0.33
8	4028	0.638	0.33
8	4042	0.64	0.33
8	4056	0.642	0.33
8	4070	0.644	0.33
8	4084	0.646	0.33
8	4098	0.648	0.33
8	4112	0.65	0.33
8	4126	0.652	0.33
8	4140	0.654	0.33
8	4154	0.656	0.33
8	4168	0.658	0.33
8	4182	0.66	0.33
8	4200	0.662	0.33
8	4218	0.664	0.33
8	4236	0.666	0.33
8	4254	0.668	0.33
8	4270	0.67	0.33
8	4286	0.672	0.33
8	4302	0.674	0.33
8	4318	0.676	0.33
8	4334	0.678	0.33
8	4350	0.68	0.33
8	4366	0.682	0.33
8	4382	0.684	0.33
8	4398	0.686	0.33
8	4414	0.688	0.33
8	4430	0.69	0.33
8	4448	0.692	0.33
8	4466	0.694	0.33
8	4484	0.696	0.33
8	4502	0.698	0.33
8	4516	0.7	0.33
8	4530	0.702	0.33
8	4544	0.704	0.33
8	4558	0.706	0.33
8	4572	0.708	0.33
8	4586	0.71	0.33
8	4600	0.712	0.33
8	4614	0.714	0.33
8	4628	0.716	0.33
8	4642	0.718	0.33
8	4656	0.72	0.33
8	4672	0.722	0.33
8	4688	0.724	0.33
8	4704	0.726	0.33
8	4720	0.728	0.33
8	5062	0.78	0.38
8	5078	0.782	0.38
8	5094	0.784	0.38
8	5110	0.786	0.38
8	5126	0.788	0.38
8	5140	0.79	0.38
8	5154	0.792	0.38
8	5168	0.794	0.38
8	5182	0.796	0.38
8	5196	0.798	0.38
8	5210	0.8	0.38
8	5224	0.802	0.38
8	5238	0.804	0.38
8	5252	0.806	0.38
8	5266	0.808	0.38
8	5280	0.81	0.38
8	5298	0.812	0.38
8	5316	0.814	0.38
8	5334	0.816	0.38
8	5352	0.818	0.38
8	5368	0.82	0.38
8	5384	0.822	0.38
8	5400	0.824	0.38
8	5416	0.826	0.38
8	5432	0.828	0.38
8	5448	0.83	0.38
8	5464	0.832	0.38
8	5480	0.834	0.38
8	5496	0.836	0.38
8	5512	0.838	0.38
8	5528	0.84	0.38
8	5546	0.842	0.38
8	5564	0.844	0.38
8	5582	0.846	0.38
8	5600	0.848	0.38
8	5614	0.85	0.38
8	5628	0.852	0.38
8	5642	0.854	0.38
8	5656	0.856	0.38
8	5670	0.858	0.38
8	5684	0.86	0.38
8	5698	0.862	0.38
8	5712	0.864	0.38
8	5726	0.866	0.38
8	5740	0.868	0.38
8	5754	0.87	0.38
8	5770	0.872	0.38
8	5786	0.874	0.38
8	5802	0.876	0.38
8	5818	0.878	0.38
8	6164	0.93	0.43
8	6180	0.932	0.43
8	6196	0.934	0.43
8	6212	0.936	0.43
8	6228	0.938	0.43
8	6242	0.94	0.43
8	6256	0.942	0.43
8	6270	0.944	0.43
8	6284	0.946	0.43
8	6298	0.948	0.43
8	6312	0.95	0.43
8	6326	0.952	0.43
8	6340	0.954	0.43
8	6354	0.956	0.43
8	6368	0.958	0.43
8	6382	0.96	0.43
8	6400	0.962	0.43
8	6418	0.964	0.43
8	6436	0.966	0.43
8	6454	0.968	0.43
8	6470	0.97	0.43
8	6486	0.972	0.43
8	6502	0.974	0.43
8	6518	0.976	0.43
8	6534	0.978	0.43
8	6550	0.98	0.43
8	6566	0.982	0.43
8	6582	0.984	0.43
8	6598	0.986	0.43
8	6614	0.988	0.43
8	6630	0.99	0.43
8	6648	0.992	0.43
8	6666	0.994	0.43
8	6684	0.996	0.43
8	6702	0.998	0.43
8	6720	1	0.43
8	6734	1.002	0.43
8	6748	1.004	0.43
8	6762	1.006	0.43
8	6776	1.008	0.43
8	6790	1.01	0.43
8	6804	1.012	0.43
8	6818	1.014	0.43
8	6832	1.016	0.43
8	6846	1.018	0.43
8	6860	1.02	0.43
8	6876	1.022	0.43
8	6892	1.024	0.43
8	6908	1.026	0.43
8	6924	1.028	0.43
8	7266	1.08	0.48
8	7282	1.082	0.48
8	7298	1.084	0.48
8	7314	1.086	0.48
8	7330	1.088	0.48
8	7344	1.09	0.48
8	7358	1.092	0.48
8	7372	1.094	0.48
8	7386	1.096	0.48
8	7400	1.098	0.48
8	7414	1.1	0.48
8	7428	1.102	0.48
8	7442	1.104	0.48
8	7456	1.106	0.48
8	7470	1.108	0.48
8	7484	1.11	0.48
8	7502	1.112	0.48
8	7520	1.114	0.48
8	7538	1.116	0.48
8	7556	1.118	0.48
8	7572	1.12	0.48
8	7588	1.122	0.48
8	7604	1.124	0.48
8	7620	1.126	0.48
8	7636	1.128	0.48
8	7652	1.13	0.48
8	7668	1.132	0.48
8	7684	1.134	0.48
8	7700	1.136	0.48
8	7716	1.138	0.48
8	7732	1.14	0.48
8	7750	1.142	0.48
8	7768	1.144	0.48
8	7786	1.146	0.48
8	7804	1.148	0.48
8	7818	1.15	0.48
8	7832	1.152	0.48
8	7846	1.154	0.48
8	7860	1.156	0.48
8	7874	1.158	0.48
8	7888	1.16	0.48
8	7902	1.162	0.48
8	7916	1.164	0.48
8	7930	1.166	0.48
8	7944	1.168	0.48
8	7958	1.17	0.48
8	7974	1.172	0.48
8	7990	1.174	0.48
8	8006	1.176	0.48
8	8022	1.178	0.48
8	8368	1.23	0.53
8	8384	1.232	0.53
8	8400	1.234	0.53
8	8416	1.236	0.53
8	8432	1.238	0.53
8	8446	1.24	0.53
8	8460	1.242	0.53
8	8474	1.244	0.53
8	8488	1.246	0.53
8	8502	1.248	0.53
8	8516	1.25	0.53
8	8530	1.252	0.53
8	8544	1.254	0.53
8	8558	1.256	0.53
8	8572	1.258	0.53
8	8586	1.26	0.53
8	8604	1.262	0.53
8	8622	1.264	0.53
8	8640	1.266	0.53
8	8658	1.268	0.53
8	8674	1.27	0.53
8	8690	1.272	0.53
8	8706	1.274	0.53
8	8722	1.276	0.53
8	8738	1.278	0.53
8	8754	1.28	0.53
8	8770	1.282	0.53
8	8786	1.284	0.53
8	8802	1.286	0.53
8	8818	1.288	0.53
8	8834	1.29	0.53
8	8852	1.292	0.53
8	8870	1.294	0.53
8	8888	1.296	0.53
8	8906	1.298	0.53
8	8920	1.3	0.53
8	8934	1.302	0.53
8	8948	1.304	0.53
8	8962	1.306	0.53
8	8976	1.308	0.53
8	8990	1.31	0.53
8	9004	1.312	0.53
8	9018	1.314	0.53
8	9032	1.316	0.53
8	9046	1.318	0.53
8	9060	1.32	0.53
8	9076	1.322	0.53
8	9092	1.324	0.53
8	9108	1.326	0.53
8	9124	1.328	0.53
8	9466	1.38	0.58
8	9482	1.382	0.58
8	9498	1.384	0.58
8	9514	1.386	0.58
8	9530	1.388	0.58
8	9544	1.39	0.58
8	9558	1.392	0.58
8	9572	1.394	0.58
8	9586	1.396	0.58
8	9600	1.398	0.58
8	9614	1.4	0.58
8	9628	1.402	0.58
8	9642	1.404	0.58
8	9656	1.406	0.58
8	9670	1.408	0.58
8	9684	1.41	0.58
8	9702	1.412	0.58
8	9720	1.414	0.58
8	9738	1.416	0.58
8	9756	1.418	0.58
8	9772	1.42	0.58
8	9788	1.422	0.58
8	9804	1.424	0.58
8	9820	1.426	0.58
8	9836	1.428	0.58
8	9852	1.43	0.58
8	9868	1.432	0.58
8	9884	1.434	0.58
8	9900	1.436	0.58
8	9916	1.438	0.58
8	9932	1.44	0.58
8	9950	1.442	0.58
8	9968	1.444	0.58
8	9986	1.446	0.58
8	10004	1.448	0.58
8	10018	1.45	0.58
8	10032	1.452	0.58
8	10046	1.454	0.58
8	10060	1.456	0.58
8	10074	1.458	0.58
8	10088	1.46	0.58
8	10102	1.462	0.58
8	10116	1.464	0.58
8	10130	1.466	0.58
8	10144	1.468	0.58
8	10158	1.47	0.58
8	10174	1.472	0.58
8	10190	1.474	0.58
8	10206	1.476	0.58
8	10222	1.478	0.58
8	10572	1.53	0.63
8	10588	1.532	0.63
8	10604	1.534	0.63
8	10620	1.536	0.63
8	10636	1.538	0.63
8	10650	1.54	0.63
8	10664	1.542	0.63
8	10678	1.544	0.63
8	10692	1.546	0.63
8	10706	1.548	0.63
8	10720	1.55	0.63
8	10734	1.552	0.63
8	10748	1.554	0.63
8	10762	1.556	0.63
8	10776	1.558	0.63
8	10790	1.56	0.63
8	10808	1.562	0.63
8	10826	1.564	0.63
8	10844	1.566	0.63
8	10862	1.568	0.63
8	10878	1.57	0.63
8	10894	1.572	0.63
8	10910	1.574	0.63
8	10926	1.576	0.63
8	10942	1.578	0.63
8	10958	1.58	0.63
8	10974	1.582	0.63
8	10990	1.584	0.63
8	11006	1.586	0.63
8	11022	1.588	0.63
8	11038	1.59	0.63
8	11056	1.592	0.63
8	11074	1.594	0.63
8	11092	1.596	0.63
8	11110	1.598	0.63
8	11124	1.6	0.63
8	11138	1.602	0.63
8	11152	1.604	0.63
8	11166	1.606	0.63
8	11180	1.608	0.63
8	11194	1.61	0.63
8	11208	1.612	0.63
8	11222	1.614	0.63
8	11236	1.616	0.63
8	11250	1.618	0.63
8	11264	1.62	0.63
8	11280	1.622	0.63
8	11296	1.624	0.63
8	11312	1.626	0.63
8	11328	1.628	0.63
8	11670	1.68	0.68
8	11686	1.682	0.68
8	11702	1.684	0.68
8	11718	1.686	0.68
8	11734	1.688	0.68
8	11748	1.69	0.68
8	11762	1.692	0.68
8	11776	1.694	0.68
8	11790	1.696	0.68
8	11804	1.698	0.68
8	11818	1.7	0.68
8	11832	1.702	0.68
8	11846	1.704	0.68
8	11860	1.706	0.68
8	11874	1.708	0.68
8	11888	1.71	0.68
8	11906	1.712	0.68
8	11924	1.714	0.68
8	11942	1.716	0.68
8	11960	1.718	0.68
8	11976	1.72	0.68
8	11992	1.722	0.68
8	12008	1.724	0.68
8	12024	1.726	0.68
8	12040	1.728	0.68
8	12056	1.73	0.68
8	12072	1.732	0.68
8	12088	1.734	0.68
8	12104	1.736	0.68
8	12120	1.738	0.68
8	12136	1.74	0.68
8	12154	1.742	0.68
8	12172	1.744	0.68
8	12190	1.746	0.68
8	12208	1.748	0.68
8	12222	1.75	0.68
8	12236	1.752	0.68
8	12250	1.754	0.68
8	12264	1.756	0.68
8	12278	1.758	0.68
8	12292	1.76	0.68
8	12306	1.762	0.68
8	12320	1.764	0.68
8	12334	1.766	0.68
8	12348	1.768	0.68
8	12362	1.77	0.68
8	12378	1.772	0.68
8	12394	1.774	0.68
8	12410	1.776	0.68
8	12426	1.778	0.68
8	12772	1.83	0.73
8	12788	1.832	0.73
8	12804	1.834	0.73
8	12820	1.836	0.73
8	12836	1.838	0.73
8	12850	1.84	0.73
8	12864	1.842	0.73
8	12878	1.844	0.73
8	12892	1.846	0.73
8	12906	1.848	0.73
8	12920	1.85	0.73
8	12934	1.852	0.73
8	12948	1.854	0.73
8	12962	1.856	0.73
8	12976	1.858	0.73
8	12990	1.86	0.73
8	13008	1.862	0.73
8	13026	1.864	0.73
8	13044	1.866	0.73
8	13062	1.868	0.73
8	13078	1.87	0.73
8	13094	1.872	0.73
8	13110	1.874	0.73
8	13126	1.876	0.73
8	13142	1.878	0.73
8	13158	1.88	0.73
8	13174	1.882	0.73
8	13190	1.884	0.73
8	13206	1.886	0.73
8	13222	1.888	0.73
8	13238	1.89	0.73
8	13256	1.892	0.73
8	13274	1.894	0.73
8	13292	1.896	0.73
8	13310	1.898	0.73
8	13324	1.9	0.73
8	13338	1.902	0.73
8	13352	1.904	0.73
8	13366	1.906	0.73
8	13380	1.908	0.73
8	13394	1.91	0.73
8	13408	1.912	0.73
8	13422	1.914	0.73
8	13436	1.916	0.73
8	13450	1.918	0.73
8	13464	1.92	0.73
8	13480	1.922	0.73
8	13496	1.924	0.73
8	13512	1.926	0.73
8	13528	1.928	0.73
8	13870	1.98	0.78
8	13886	1.982	0.78
8	13902	1.984	0.78
8	13918	1.986	0.78
8	13934	1.988	0.78
8	13948	1.99	0.78
8	13962	1.992	0.78
8	13976	1.994	0.78
8	13990	1.996	0.78
8	14004	1.998	0.78
8	14022	2	0.78
8	14036	2.002	0.78
8	14050	2.004	0.78
8	14064	2.006	0.78
8	14078	2.008	0.78
8	14092	2.01	0.78
8	14110	2.012	0.78
8	14128	2.014	0.78
8	14146	2.016	0.78
8	14164	2.018	0.78
8	14180	2.02	0.78
8	14196	2.022	0.78
8	14212	2.024	0.78
8	14228	2.026	0.78
8	14244	2.028	0.78
8	14260	2.03	0.78
8	14276	2.032	0.78
8	14292	2.034	0.78
8	14308	2.036	0.78
8	14324	2.038	0.78
8	14340	2.04	0.78
8	14358	2.042	0.78
8	14376	2.044	0.78
8	14394	2.046	0.78
8	14412	2.048	0.78
8	14426	2.05	0.78
8	14440	2.052	0.78
8	14454	2.054	0.78
8	14468	2.056	0.78
8	14482	2.058	0.78
8	14496	2.06	0.78
8	14510	2.062	0.78
8	14524	2.064	0.78
8	14538	2.066	0.78
8	14552	2.068	0.78
8	14566	2.07	0.78
8	14582	2.072	0.78
8	14598	2.074	0.78
8	14614	2.076	0.78
8	14630	2.078	0.78
8	14976	2.13	0.83
8	14992	2.132	0.83
8	15008	2.134	0.83
8	15024	2.136	0.83
8	15040	2.138	0.83
8	15054	2.14	0.83
8	15068	2.142	0.83
8	15082	2.144	0.83
8	15096	2.146	0.83
8	15110	2.148	0.83
8	15124	2.15	0.83
8	15138	2.152	0.83
8	15152	2.154	0.83
8	15166	2.156	0.83
8	15180	2.158	0.83
8	15194	2.16	0.83
8	15212	2.162	0.83
8	15230	2.164	0.83
8	15248	2.166	0.83
8	15266	2.168	0.83
8	15282	2.17	0.83
8	15298	2.172	0.83
8	15314	2.174	0.83
8	15330	2.176	0.83
8	15346	2.178	0.83
8	15362	2.18	0.83
8	15378	2.182	0.83
8	15394	2.184	0.83
8	15410	2.186	0.83
8	15426	2.188	0.83
8	15442	2.19	0.83
8	15460	2.192	0.83
8	15478	2.194	0.83
8	15496	2.196	0.83
8	15514	2.198	0.83
8	15528	2.2	0.83
8	15542	2.202	0.83
8	15556	2.204	0.83
8	15570	2.206	0.83
8	15584	2.208	0.83
8	15598	2.21	0.83
8	15612	2.212	0.83
8	15626	2.214	0.83
8	15640	2.216	0.83
8	15654	2.218	0.83
8	15668	2.22	0.83
8	15684	2.222	0.83
8	15700	2.224	0.83
8	15716	2.226	0.83
8	15732	2.228	0.83
8	16074	2.28	0.88
8	16090	2.282	0.88
8	16106	2.284	0.88
8	16122	2.286	0.88
8	16138	2.288	0.88
8	16152	2.29	0.88
8	16166	2.292	0.88
8	16180	2.294	0.88
8	16194	2.296	0.88
8	16208	2.298	0.88
8	16222	2.3	0.88
8	16236	2.302	0.88
8	16250	2.304	0.88
8	16264	2.306	0.88
8	16278	2.308	0.88
8	16292	2.31	0.88
8	16310	2.312	0.88
8	16328	2.314	0.88
8	16346	2.316	0.88
8	16364	2.318	0.88
8	16380	2.32	0.88
8	16396	2.322	0.88
8	16412	2.324	0.88
8	16428	2.326	0.88
8	16444	2.328	0.88
8	16460	2.33	0.88
8	16476	2.332	0.88
8	16492	2.334	0.88
8	16508	2.336	0.88
8	16524	2.338	0.88
8	16540	2.34	0.88
8	16558	2.342	0.88
8	16576	2.344	0.88
8	16594	2.346	0.88
8	16612	2.348	0.88
8	16626	2.35	0.88
8	16640	2.352	0.88
8	16654	2.354	0.88
8	16668	2.356	0.88
8	16682	2.358	0.88
8	16696	2.36	0.88
8	16710	2.362	0.88
8	16724	2.364	0.88
8	16738	2.366	0.88
8	16752	2.368	0.88
8	16766	2.37	0.88
8	16782	2.372	0.88
8	16798	2.374	0.88
8	16814	2.376	0.88
8	16830	2.378	0.88
8	17176	2.43	0.93
8	17192	2.432	0.93
8	17208	2.434	0.93
8	17224	2.436	0.93
8	17240	2.438	0.93
8	17254	2.44	0.93
8	17268	2.442	0.93
8	17282	2.444	0.93
8	17296	2.446	0.93
8	17310	2.448	0.93
8	17324	2.45	0.93
8	17338	2.452	0.93
8	17352	2.454	0.93
8	17366	2.456	0.93
8	17380	2.458	0.93
8	17394	2.46	0.93
8	17412	2.462	0.93
8	17430	2.464	0.93
8	17448	2.466	0.93
8	17466	2.468	0.93
8	17482	2.47	0.93
8	17498	2.472	0.93
8	17514	2.474	0.93
8	17530	2.476	0.93
8	17546	2.478	0.93
8	17562	2.48	0.93
8	17578	2.482	0.93
8	17594	2.484	0.93
8	17610	2.486	0.93
8	17626	2.488	0.93
8	17642	2.49	0.93
8	17660	2.492	0.93
8	17678	2.494	0.93
8	17696	2.496	0.93
8	17714	2.498	0.93
8	17732	2.5	0.93
8	17746	2.502	0.93
8	17760	2.504	0.93
8	17774	2.506	0.93
8	17788	2.508	0.93
8	17802	2.51	0.93
8	17816	2.512	0.93
8	17830	2.514	0.93
8	17844	2.516	0.93
8	17858	2.518	0.93
8	17872	2.52	0.93
8	17888	2.522	0.93
8	17904	2.524	0.93
8	17920	2.526	0.93
8	17936	2.528	0.93
8	18278	2.58	0.98
8	18294	2.582	0.98
8	18310	2.584	0.98
8	18326	2.586	0.98
8	18342	2.588	0.98
8	18356	2.59	0.98
8	18370	2.592	0.98
8	18384	2.594	0.98
8	18398	2.596	0.98
8	18412	2.598	0.98
8	18426	2.6	0.98
8	18440	2.602	0.98
8	18454	2.604	0.98
8	18468	2.606	0.98
8	18482	2.608	0.98
8	18496	2.61	0.98
8	18514	2.612	0.98
8	18532	2.614	0.98
8	18550	2.616	0.98
8	18568	2.618	0.98
8	18584	2.62	0.98
8	18600	2.622	0.98
8	18616	2.624	0.98
8	18632	2.626	0.98
8	18648	2.628	0.98
8	18664	2.63	0.98
8	18680	2.632	0.98
8	18696	2.634	0.98
8	18712	2.636	0.98
8	18728	2.638	0.98
8	18744	2.64	0.98
8	18762	2.642	0.98
8	18780	2.644	0.98
8	18798	2.646	0.98
8	18816	2.648	0.98
8	18830	2.65	0.98
8	18844	2.652	0.98
8	18858	2.654	0.98
8	18872	2.656	0.98
8	18886	2.658	0.98
8	18900	2.66	0.98
8	18914	2.662	0.98
8	18928	2.664	0.98
8	18942	2.666	0.98
8	18956	2.668	0.98
8	18970	2.67	0.98
8	18986	2.672	0.98
8	19002	2.674	0.98
8	19018	2.676	0.98
8	19034	2.678	0.98
8	19380	2.73	1.03
8	19396	2.732	1.03
8	19412	2.734	1.03
8	19428	2.736	1.03
8	19444	2.738	1.03
8	19458	2.74	1.03
8	19472	2.742	1.03
8	19486	2.744	1.03
8	19500	2.746	1.03
8	19514	2.748	1.03
8	19528	2.75	1.03
8	19542	2.752	1.03
8	19556	2.754	1.03
8	19570	2.756	1.03
8	19584	2.758	1.03
8	19598	2.76	1.03
8	19616	2.762	1.03
8	19634	2.764	1.03
8	19652	2.766	1.03
8	19670	2.768	1.03
8	19686	2.77	1.03
8	19702	2.772	1.03
8	19718	2.774	1.03
8	19734	2.776	1.03
8	19750	2.778	1.03
8	19766	2.78	1.03
8	19782	2.782	1.03
8	19798	2.784	1.03
8	19814	2.786	1.03
8	19830	2.788	1.03
8	19846	2.79	1.03
8	19864	2.792	1.03
8	19882	2.794	1.03
8	19900	2.796	1.03
8	19918	2.798	1.03
8	19932	2.8	1.03
8	19946	2.802	1.03
8	19960	2.804	1.03
8	19974	2.806	1.03
8	19988	2.808	1.03
8	20002	2.81	1.03
8	20016	2.812	1.03
8	20030	2.814	1.03
8	20044	2.816	1.03
8	20058	2.818	1.03
8	20072	2.82	1.03
8	20088	2.822	1.03
8	20104	2.824	1.03
8	20120	2.826	1.03
8	20136	2.828	1.03
8	20478	2.88	1.08
8	20494	2.882	1.08
8	20510	2.884	1.08
8	20526	2.886	1.08
8	20542	2.888	1.08
8	20556	2.89	1.08
8	20570	2.892	1.08
8	20584	2.894	1.08
8	20598	2.896	1.08
8	20612	2.898	1.08
8	20626	2.9	1.08
8	20640	2.902	1.08
8	20654	2.904	1.08
8	20668	2.906	1.08
8	20682	2.908	1.08
8	20696	2.91	1.08
8	20714	2.912	1.08
8	20732	2.914	1.08
8	20750	2.916	1.08
8	20768	2.918	1.08
8	20784	2.92	1.08
8	20800	2.922	1.08
8	20816	2.924	1.08
8	20832	2.926	1.08
8	20848	2.928	1.08
8	20864	2.93	1.08
8	20880	2.932	1.08
8	20896	2.934	1.08
8	20912	2.936	1.08
8	20928	2.938	1.08
8	20944	2.94	1.08
8	20962	2.942	1.08
8	20980	2.944	1.08
8	20998	2.946	1.08
8	21016	2.948	1.08
8	21030	2.95	1.08
8	21044	2.952	1.08
8	21058	2.954	1.08
8	21072	2.956	1.08
8	21086	2.958	1.08
8	21100	2.96	1.08
8	21114	2.962	1.08
8	21128	2.964	1.08
8	21142	2.966	1.08
8	21156	2.968	1.08
8	21170	2.97	1.08
8	21186	2.972	1.08
8	21202	2.974	1.08
8	21218	2.976	1.08
8	21234	2.978	1.08
8	21584	3.03	1.13
8	21600	3.032	1.13
8	21616	3.034	1.13
8	21632	3.036	1.13
8	21648	3.038	1.13
8	21662	3.04	1.13
8	21676	3.042	1.13
8	21690	3.044	1.13
8	21704	3.046	1.13
8	21718	3.048	1.13
8	21732	3.05	1.13
8	21746	3.052	1.13
8	21760	3.054	1.13
8	21774	3.056	1.13
8	21788	3.058	1.13
8	21802	3.06	1.13
8	21820	3.062	1.13
8	21838	3.064	1.13
8	21856	3.066	1.13
8	21874	3.068	1.13
8	21890	3.07	1.13
8	21906	3.072	1.13
8	21922	3.074	1.13
8	21938	3.076	1.13
8	21954	3.078	1.13
8	21970	3.08	1.13
8	21986	3.082	1.13
8	22002	3.084	1.13
8	22018	3.086	1.13
8	22034	3.088	1.13
8	22050	3.09	1.13
8	22068	3.092	1.13
8	22086	3.094	1.13
8	22104	3.096	1.13
8	22122	3.098	1.13
8	22136	3.1	1.13
8	22150	3.102	1.13
8	22164	3.104	1.13
8	22178	3.106	1.13
8	22192	3.108	1.13
8	22206	3.11	1.13
8	22220	3.112	1.13
8	22234	3.114	1.13
8	22248	3.116	1.13
8	22262	3.118	1.13
8	22276	3.12	1.13
8	22292	3.122	1.13
8	22308	3.124	1.13
8	22324	3.126	1.13
8	22340	3.128	1.13
8	22682	3.18	1.18
8	22698	3.182	1.18
8	22714	3.184	1.18
8	22730	3.186	1.18
8	22746	3.188	1.18
8	22760	3.19	1.18
8	22774	3.192	1.18
8	22788	3.194	1.18
8	22802	3.196	1.18
8	22816	3.198	1.18
8	22830	3.2	1.18
8	22844	3.202	1.18
8	22858	3.204	1.18
8	22872	3.206	1.18
8	22886	3.208	1.18
8	22900	3.21	1.18
8	22918	3.212	1.18
8	22936	3.214	1.18
8	22954	3.216	1.18
8	22972	3.218	1.18
8	22988	3.22	1.18
8	23004	3.222	1.18
8	23020	3.224	1.18
8	23036	3.226	1.18
8	23052	3.228	1.18
8	23068	3.23	1.18
8	23084	3.232	1.18
8	23100	3.234	1.18
8	23116	3.236	1.18
8	23132	3.238	1.18
8	23148	3.24	1.18
8	23166	3.242	1.18
8	23184	3.244	1.18
8	23202	3.246	1.18
8	23220	3.248	1.18
8	23234	3.25	1.18
8	23248	3.252	1.18
8	23262	3.254	1.18
8	23276	3.256	1.18
8	23290	3.258	1.18
8	23304	3.26	1.18
8	23318	3.262	1.18
8	23332	3.264	1.18
8	23346	3.266	1.18
8	23360	3.268	1.18
8	23374	3.27	1.18
8	23390	3.272	1.18
8	23406	3.274	1.18
8	23422	3.276	1.18
8	23438	3.278	1.18
8	23784	3.33	1.23
8	23800	3.332	1.23
8	23816	3.334	1.23
8	23832	3.336	1.23
8	23848	3.338	1.23
8	23862	3.34	1.23
8	23876	3.342	1.23
8	23890	3.344	1.23
8	23904	3.346	1.23
8	23918	3.348	1.23
8	23932	3.35	1.23
8	23946	3.352	1.23
8	23960	3.354	1.23
8	23974	3.356	1.23
8	23988	3.358	1.23
8	24002	3.36	1.23
8	24020	3.362	1.23
8	24038	3.364	1.23
8	24056	3.366	1.23
8	24074	3.368	1.23
8	24090	3.37	1.23
8	24106	3.372	1.23
8	24122	3.374	1.23
8	24138	3.376	1.23
8	24154	3.378	1.23
8	24170	3.38	1.23
8	24186	3.382	1.23
8	24202	3.384	1.23
8	24218	3.386	1.23
8	24234	3.388	1.23
8	24250	3.39	1.23
8	24268	3.392	1.23
8	24286	3.394	1.23
8	24304	3.396	1.23
8	24322	3.398	1.23
8	24336	3.4	1.23
8	24350	3.402	1.23
8	24364	3.404	1.23
8	24378	3.406	1.23
8	24392	3.408	1.23
8	24406	3.41	1.23
8	24420	3.412	1.23
8	24434	3.414	1.23
8	24448	3.416	1.23
8	24462	3.418	1.23
8	24476	3.42	1.23
8	24492	3.422	1.23
8	24508	3.424	1.23
8	24524	3.426	1.23
8	24540	3.428	1.23
8	24882	3.48	1.28
8	24898	3.482	1.28
8	24914	3.484	1.28
8	24930	3.486	1.28
8	24946	3.488	1.28
8	24960	3.49	1.28
8	24974	3.492	1.28
8	24988	3.494	1.28
8	25002	3.496	1.28
8	25016	3.498	1.28
8	25034	3.5	1.28
8	25048	3.502	1.28
8	25062	3.504	1.28
8	25076	3.506	1.28
8	25090	3.508	1.28
8	25104	3.51	1.28
8	25122	3.512	1.28
8	25140	3.514	1.28
8	25158	3.516	1.28
8	25176	3.518	1.28
8	25192	3.52	1.28
8	25208	3.522	1.28
8	25224	3.524	1.28
8	25240	3.526	1.28
8	25256	3.528	1.28
8	25272	3.53	1.28
8	25288	3.532	1.28
8	25304	3.534	1.28
8	25320	3.536	1.28
8	25336	3.538	1.28
8	25352	3.54	1.28
8	25370	3.542	1.28
8	25388	3.544	1.28
8	25406	3.546	1.28
8	25424	3.548	1.28
8	25438	3.55	1.28
8	25452	3.552	1.28
8	25466	3.554	1.28
8	25480	3.556	1.28
8	25494	3.558	1.28
8	25508	3.56	1.28
8	25522	3.562	1.28
8	25536	3.564	1.28
8	25550	3.566	1.28
8	25564	3.568	1.28
8	25578	3.57	1.28
8	25594	3.572	1.28
8	25610	3.574	1.28
8	25626	3.576	1.28
8	25642	3.578	1.28
8	25988	3.63	1.33
8	26004	3.632	1.33
8	26020	3.634	1.33
8	26036	3.636	1.33
8	26052	3.638	1.33
8	26066	3.64	1.33
8	26080	3.642	1.33
8	26094	3.644	1.33
8	26108	3.646	1.33
8	26122	3.648	1.33
8	26136	3.65	1.33
8	26150	3.652	1.33
8	26164	3.654	1.33
8	26178	3.656	1.33
8	26192	3.658	1.33
8	26206	3.66	1.33
8	26224	3.662	1.33
8	26242	3.664	1.33
8	26260	3.666	1.33
8	26278	3.668	1.33
8	26294	3.67	1.33
8	26310	3.672	1.33
8	26326	3.674	1.33
8	26342	3.676	1.33
8	26358	3.678	1.33
8	26374	3.68	1.33
8	26390	3.682	1.33
8	26406	3.684	1.33
8	26422	3.686	1.33
8	26438	3.688	1.33
8	26454	3.69	1.33
8	26472	3.692	1.33
8	26490	3.694	1.33
8	26508	3.696	1.33
8	26526	3.698	1.33
8	26540	3.7	1.33
8	26554	3.702	1.33
8	26568	3.704	1.33
8	26582	3.706	1.33
8	26596	3.708	1.33
8	26610	3.71	1.33
8	26624	3.712	1.33
8	26638	3.714	1.33
8	26652	3.716	1.33
8	26666	3.718	1.33
8	26680	3.72	1.33
8	26696	3.722	1.33
8	26712	3.724	1.33
8	26728	3.726	1.33
8	26744	3.728	1.33
8	27086	3.78	1.38
8	27102	3.782	1.38
8	27118	3.784	1.38
8	27134	3.786	1.38
8	27150	3.788	1.38
8	27164	3.79	1.38
8	27178	3.792	1.38
8	27192	3.794	1.38
8	27206	3.796	1.38
8	27220	3.798	1.38
8	27234	3.8	1.38
8	27248	3.802	1.38
8	27262	3.804	1.38
8	27276	3.806	1.38
8	27290	3.808	1.38
8	27304	3.81	1.38
8	27322	3.812	1.38
8	27340	3.814	1.38
8	27358	3.816	1.38
8	27376	3.818	1.38
8	27392	3.82	1.38
8	27408	3.822	1.38
8	27424	3.824	1.38
8	27440	3.826	1.38
8	27456	3.828	1.38
8	27472	3.83	1.38
8	27488	3.832	1.38
8	27504	3.834	1.38
8	27520	3.836	1.38
8	27536	3.838	1.38
8	27552	3.84	1.38
8	27570	3.842	1.38
8	27588	3.844	1.38
8	27606	3.846	1.38
8	27624	3.848	1.38
8	27638	3.85	1.38
8	27652	3.852	1.38
8	27666	3.854	1.38
8	27680	3.856	1.38
8	27694	3.858	1.38
8	27708	3.86	1.38
8	27722	3.862	1.38
8	27736	3.864	1.38
8	27750	3.866	1.38
8	27764	3.868	1.38
8	27778	3.87	1.38
8	27794	3.872	1.38
8	27810	3.874	1.38
8	27826	3.876	1.38
8	27842	3.878	1.38
8	28188	3.93	1.43
8	28204	3.932	1.43
8	28220	3.934	1.43
8	28236	3.936	1.43
8	28252	3.938	1.43
8	28266	3.94	1.43
8	28280	3.942	1.43
8	28294	3.944	1.43
8	28308	3.946	1.43
8	28322	3.948	1.43
8	28336	3.95	1.43
8	28350	3.952	1.43
8	28364	3.954	1.43
8	28378	3.956	1.43
8	28392	3.958	1.43
8	28406	3.96	1.43
8	28424	3.962	1.43
8	28442	3.964	1.43
8	28460	3.966	1.43
8	28478	3.968	1.43
8	28494	3.97	1.43
8	28510	3.972	1.43
8	28526	3.974	1.43
8	28542	3.976	1.43
8	28558	3.978	1.43
8	28574	3.98	1.43
8	28590	3.982	1.43
8	28606	3.984	1.43
8	28622	3.986	1.43
8	28638	3.988	1.43
8	28654	3.99	1.43
8	28672	3.992	1.43
8	28690	3.994	1.43
8	28708	3.996	1.43
8	28726	3.998	1.43
8	28744	4	1.43
8	28758	4.002	1.43
8	28772	4.004	1.43
8	28786	4.006	1.43
8	28800	4.008	1.43
8	28814	4.01	1.43
8	28828	4.012	1.43
8	28842	4.014	1.43
8	28856	4.016	1.43
8	28870	4.018	1.43
8	28884	4.02	1.43
8	28900	4.022	1.43
8	28916	4.024	1.43
8	28932	4.026	1.43
8	28948	4.028	1.43
8	29290	4.08	1.48
8	29306	4.082	1.48
8	29322	4.084	1.48
8	29338	4.086	1.48
8	29354	4.088	1.48
8	29368	4.09	1.48
8	29382	4.092	1.48
8	29396	4.094	1.48
8	29410	4.096	1.48
8	29424	4.098	1.48
8	29438	4.1	1.48
8	29452	4.102	1.48
8	29466	4.104	1.48
8	29480	4.106	1.48
8	29494	4.108	1.48
8	29508	4.11	1.48
8	29526	4.112	1.48
8	29544	4.114	1.48
8	29562	4.116	1.48
8	29580	4.118	1.48
8	29596	4.12	1.48
8	29612	4.122	1.48
8	29628	4.124	1.48
8	29644	4.126	1.48
8	29660	4.128	1.48
8	29676	4.13	1.48
8	29692	4.132	1.48
8	29708	4.134	1.48
8	29724	4.136	1.48
8	29740	4.138	1.48
8	29756	4.14	1.48
8	29774	4.142	1.48
8	29792	4.144	1.48
8	29810	4.146	1.48
8	29828	4.148	1.48
8	29842	4.15	1.48
8	29856	4.152	1.48
8	29870	4.154	1.48
8	29884	4.156	1.48
8	29898	4.158	1.48
8	29912	4.16	1.48
8	29926	4.162	1.48
8	29940	4.164	1.48
8	29954	4.166	1.48
8	29968	4.168	1.48
8	29982	4.17	1.48
8	29998	4.172	1.48
8	30014	4.174	1.48
8	30030	4.176	1.48
8	30046	4.178	1.48
8	30392	4.23	1.53
8	30408	4.232	1.53
8	30424	4.234	1.53
8	30440	4.236	1.53
8	30456	4.238	1.53
8	30470	4.24	1.53
8	30484	4.242	1.53
8	30498	4.244	1.53
8	30512	4.246	1.53
8	30526	4.248	1.53
8	30540	4.25	1.53
8	30554	4.252	1.53
8	30568	4.254	1.53
8	30582	4.256	1.53
8	30596	4.258	1.53
8	30610	4.26	1.53
8	30628	4.262	1.53
8	30646	4.264	1.53
8	30664	4.266	1.53
8	30682	4.268	1.53
8	30698	4.27	1.53
8	30714	4.272	1.53
8	30730	4.274	1.53
8	30746	4.276	1.53
8	30762	4.278	1.53
8	30778	4.28	1.53
8	30794	4.282	1.53
8	30810	4.284	1.53
8	30826	4.286	1.53
8	30842	4.288	1.53
8	30858	4.29	1.53
8	30876	4.292	1.53
8	30894	4.294	1.53
8	30912	4.296	1.53
8	30930	4.298	1.53
8	30944	4.3	1.53
8	30958	4.302	1.53
8	30972	4.304	1.53
8	30986	4.306	1.53
8	31000	4.308	1.53