file 20812 1542759004                                           
version 2
run simpleNet-0-20181120-19:09:59-9339
attr configname simpleNet
attr datetime 20181120-19:09:59
attr experiment simpleNet
attr inifile omnetpp.ini
attr iterationvars ""
attr iterationvarsf ""
attr measurement ""
attr network simpleNet
attr processid 9339
attr repetition 0
attr replication #0
attr resultdir results
attr runnumber 0
attr seedset 0

vector 0 simpleNet.node[0] "numInQueuePerChannelSignal(other node 1):vector" ETV
0	5700 240 3 626 0 10.5 22 0 0 0 0
vector 1 simpleNet.node[0] "numInQueuePerChannelSignal(other node 3):vector" ETV
1	5940 240 3 626 0 10.5 22 0 0 0 0
vector 2 simpleNet.node[0] "numInQueuePerChannelSignal(other node 4):vector" ETV
2	6180 240 3 626 0 10.5 22 0 0 0 0
vector 3 simpleNet.node[0] "numProcessedPerChannelSignal(other node 0):vector" ETV
3	6420 240 3 626 0 10.5 22 0 0 0 0
vector 4 simpleNet.node[0] "numProcessedPerChannelSignal(other node 1):vector" ETV
4	6660 240 3 626 0 10.5 22 0 1 10 10
vector 5 simpleNet.node[0] "numProcessedPerChannelSignal(other node 2):vector" ETV
5	6900 240 3 626 0 10.5 22 0 0 0 0
vector 6 simpleNet.node[0] "numProcessedPerChannelSignal(other node 3):vector" ETV
6	7140 240 3 626 0 10.5 22 0 1 20 20
vector 7 simpleNet.node[0] "numProcessedPerChannelSignal(other node 4):vector" ETV
7	7380 240 3 626 0 10.5 22 0 1 10 10
vector 8 simpleNet.node[0] numInQueue:vector ETV
attr interpolationmode none
attr source numInQueue
attr title "total num in queue, vector"
8	7620 240 3 626 0 10.5 22 0 0 0 0
vector 9 simpleNet.node[1] "numInQueuePerChannelSignal(other node 0):vector" ETV
9	7860 240 5 627 0 10.5 22 0 0 0 0
vector 10 simpleNet.node[1] "numInQueuePerChannelSignal(other node 2):vector" ETV
10	8100 262 5 627 0 10.5 22 0 0 0 0
vector 11 simpleNet.node[1] "numInQueuePerChannelSignal(other node 3):vector" ETV
11	8362 262 5 627 0 10.5 22 0 0 0 0
vector 12 simpleNet.node[1] "numProcessedPerChannelSignal(other node 0):vector" ETV
12	8624 262 5 627 0 10.5 22 0 1 10 10
vector 13 simpleNet.node[1] "numProcessedPerChannelSignal(other node 1):vector" ETV
13	8886 262 5 627 0 10.5 22 0 0 0 0
vector 14 simpleNet.node[1] "numProcessedPerChannelSignal(other node 2):vector" ETV
14	9148 262 5 627 0 10.5 22 0 1 10 10
vector 15 simpleNet.node[1] "numProcessedPerChannelSignal(other node 3):vector" ETV
15	9410 262 5 627 0 10.5 22 0 1 20 20
vector 16 simpleNet.node[1] "numProcessedPerChannelSignal(other node 4):vector" ETV
16	9672 262 5 627 0 10.5 22 0 0 0 0
vector 17 simpleNet.node[1] numInQueue:vector ETV
attr interpolationmode none
attr source numInQueue
attr title "total num in queue, vector"
17	9934 262 5 627 0 10.5 22 0 0 0 0
vector 18 simpleNet.node[2] "numInQueuePerChannelSignal(other node 1):vector" ETV
18	10196 262 8 628 0 10.5 22 0 0 0 0
vector 19 simpleNet.node[2] "numInQueuePerChannelSignal(other node 3):vector" ETV
19	10458 262 8 628 0 10.5 22 0 0 0 0
vector 20 simpleNet.node[2] "numInQueuePerChannelSignal(other node 4):vector" ETV
20	10720 262 8 628 0 10.5 22 0 0 0 0
vector 21 simpleNet.node[2] "numProcessedPerChannelSignal(other node 0):vector" ETV
21	10982 262 8 628 0 10.5 22 0 0 0 0
vector 22 simpleNet.node[2] "numProcessedPerChannelSignal(other node 1):vector" ETV
22	11244 262 8 628 0 10.5 22 0 1 10 10
vector 23 simpleNet.node[2] "numProcessedPerChannelSignal(other node 2):vector" ETV
23	11506 262 8 628 0 10.5 22 0 0 0 0
vector 24 simpleNet.node[2] "numProcessedPerChannelSignal(other node 3):vector" ETV
24	11768 262 8 628 0 10.5 22 0 1 20 20
vector 25 simpleNet.node[2] "numProcessedPerChannelSignal(other node 4):vector" ETV
25	12030 262 8 628 0 10.5 22 0 2 40 80
vector 26 simpleNet.node[2] numInQueue:vector ETV
attr interpolationmode none
attr source numInQueue
attr title "total num in queue, vector"
26	12292 262 8 628 0 10.5 22 0 0 0 0
vector 27 simpleNet.node[3] "numInQueuePerChannelSignal(other node 0):vector" ETV
27	12554 263 11 629 0 10.5 22 0 0 0 0
vector 28 simpleNet.node[3] "numInQueuePerChannelSignal(other node 1):vector" ETV
28	12817 263 11 629 0 10.5 22 0 0 0 0
vector 29 simpleNet.node[3] "numInQueuePerChannelSignal(other node 2):vector" ETV
29	13080 263 11 629 0 10.5 22 0 0 0 0
vector 30 simpleNet.node[3] "numProcessedPerChannelSignal(other node 0):vector" ETV
30	13343 263 11 629 0 10.5 22 0 1 20 20
vector 31 simpleNet.node[3] "numProcessedPerChannelSignal(other node 1):vector" ETV
31	13606 263 11 629 0 10.5 22 0 1 20 20
vector 32 simpleNet.node[3] "numProcessedPerChannelSignal(other node 2):vector" ETV
32	13869 263 11 629 0 10.5 22 0 1 20 20
vector 33 simpleNet.node[3] "numProcessedPerChannelSignal(other node 3):vector" ETV
33	14132 263 11 629 0 10.5 22 0 0 0 0
vector 34 simpleNet.node[3] "numProcessedPerChannelSignal(other node 4):vector" ETV
34	14395 263 11 629 0 10.5 22 0 0 0 0
vector 35 simpleNet.node[3] numInQueue:vector ETV
attr interpolationmode none
attr source numInQueue
attr title "total num in queue, vector"
35	14658 263 11 629 0 10.5 22 0 0 0 0
vector 36 simpleNet.node[4] "numInQueuePerChannelSignal(other node 0):vector" ETV
36	14921 263 13 630 0 10.5 22 0 0 0 0
vector 37 simpleNet.node[4] "numInQueuePerChannelSignal(other node 2):vector" ETV
37	15184 263 13 630 0 10.5 22 0 0 0 0
vector 38 simpleNet.node[4] "numProcessedPerChannelSignal(other node 0):vector" ETV
38	15447 263 13 630 0 10.5 22 0 1 10 10
vector 39 simpleNet.node[4] "numProcessedPerChannelSignal(other node 1):vector" ETV
39	15710 263 13 630 0 10.5 22 0 0 0 0
vector 40 simpleNet.node[4] "numProcessedPerChannelSignal(other node 2):vector" ETV
40	15973 263 13 630 0 10.5 22 0 2 40 80
vector 41 simpleNet.node[4] "numProcessedPerChannelSignal(other node 3):vector" ETV
41	16236 263 13 630 0 10.5 22 0 0 0 0
vector 42 simpleNet.node[4] "numProcessedPerChannelSignal(other node 4):vector" ETV
42	16499 263 13 630 0 10.5 22 0 0 0 0
vector 43 simpleNet.node[4] numInQueue:vector ETV
attr interpolationmode none
attr source numInQueue
attr title "total num in queue, vector"
43	16762 263 13 630 0 10.5 22 0 0 0 0
vector 44 simpleNet.node[0] completionTime:vector ETV
attr interpolationmode none
attr source completionTime
attr title "completionTime, vector"
44	17025 296 22 581 0.06 9.06 20 60 60 1200 72000
vector 45 simpleNet.node[0] "numCompletedPerSourceSignal(source node 4):vector" ETV
45	17321 139 22 580 0.06 9.06 10 1 10 55 385
vector 46 simpleNet.node[0] "numCompletedPerSourceSignal(source node 1):vector" ETV
46	17460 139 23 581 0.06 9.06 10 1 10 55 385
vector 47 simpleNet.node[1] completionTime:vector ETV
attr interpolationmode none
attr source completionTime
attr title "completionTime, vector"
47	17599 297 24 611 0.06 9.56 20 60 60 1200 72000
vector 48 simpleNet.node[1] "numCompletedPerSourceSignal(source node 3):vector" ETV
48	17896 288 24 611 0.06 9.56 20 1 20 210 2870
vector 49 simpleNet.node[2] completionTime:vector ETV
attr interpolationmode none
attr source completionTime
attr title "completionTime, vector"
49	18184 445 25 612 0.06 9.56 30 60 60 1800 108000
vector 50 simpleNet.node[2] "numCompletedPerSourceSignal(source node 1):vector" ETV
50	18629 139 25 583 0.06 9.06 10 1 10 55 385
vector 51 simpleNet.node[2] "numCompletedPerSourceSignal(source node 4):vector" ETV
51	18768 288 26 612 0.06 9.56 20 1 20 210 2870
vector 52 simpleNet.node[3] completionTime:vector ETV
attr interpolationmode none
attr source completionTime
attr title "completionTime, vector"
52	19056 594 27 614 0.06 9.56 40 60 60 2400 144000
vector 53 simpleNet.node[3] "numCompletedPerSourceSignal(source node 0):vector" ETV
53	19650 288 27 613 0.06 9.56 20 1 20 210 2870
vector 54 simpleNet.node[3] "numCompletedPerSourceSignal(source node 2):vector" ETV
54	19938 288 28 614 0.06 9.56 20 1 20 210 2870
vector 55 simpleNet.node[4] completionTime:vector ETV
attr interpolationmode none
attr source completionTime
attr title "completionTime, vector"
55	20226 297 29 615 0.06 9.56 20 60 60 1200 72000
vector 56 simpleNet.node[4] "numCompletedPerSourceSignal(source node 2):vector" ETV
56	20523 289 29 615 0.06 9.56 20 1 20 210 2870
