version 2
run simpleNet-0-20181107-05:27:55-31325
attr configname simpleNet
attr datetime 20181107-05:27:55
attr experiment simpleNet
attr inifile omnetpp.ini
attr iterationvars ""
attr iterationvarsf ""
attr measurement ""
attr network simpleNet
attr processid 31325
attr repetition 0
attr replication #0
attr resultdir results
attr runnumber 0
attr seedset 0

vector 0 simpleNet.node[0] numInQueue:vector ETV
attr interpolationmode none
attr source numInQueue
attr title "total num in queue, vector"
vector 1 simpleNet.node[0] numProcessed:vector ETV
attr interpolationmode none
attr source numProcessed
attr title "num processed in statRate time, vector"
vector 2 simpleNet.node[1] numInQueue:vector ETV
attr interpolationmode none
attr source numInQueue
attr title "total num in queue, vector"
vector 3 simpleNet.node[1] numProcessed:vector ETV
attr interpolationmode none
attr source numProcessed
attr title "num processed in statRate time, vector"
vector 4 simpleNet.node[2] numInQueue:vector ETV
attr interpolationmode none
attr source numInQueue
attr title "total num in queue, vector"
vector 5 simpleNet.node[2] numProcessed:vector ETV
attr interpolationmode none
attr source numProcessed
attr title "num processed in statRate time, vector"
vector 6 simpleNet.node[3] numInQueue:vector ETV
attr interpolationmode none
attr source numInQueue
attr title "total num in queue, vector"
vector 7 simpleNet.node[3] numProcessed:vector ETV
attr interpolationmode none
attr source numProcessed
attr title "num processed in statRate time, vector"
vector 8 simpleNet.node[0] completionTime:vector ETV
attr interpolationmode none
attr source completionTime
attr title "completionTime, vector"
vector 9 simpleNet.node[3] completionTime:vector ETV
attr interpolationmode none
attr source completionTime
attr title "completionTime, vector"
0	2	0	0
0	1138	0.5	0
0	2254	1	0
0	3358	1.5	0
0	4462	2	0
0	5566	2.5	0
0	6670	3	0
0	7774	3.5	0
0	8878	4	0
0	9982	4.5	0
0	11086	5	0
0	12190	5.5	0
0	13294	6	0
0	14398	6.5	0
0	15502	7	0
0	16606	7.5	0
0	17710	8	0
0	18814	8.5	0
0	19918	9	0
0	21022	9.5	0
0	22124	10	0
0	22485	10.5	0
1	2	0	0
1	1138	0.5	99
1	2254	1	103
1	3358	1.5	100
1	4462	2	100
1	5566	2.5	100
1	6670	3	100
1	7774	3.5	100
1	8878	4	100
1	9982	4.5	100
1	11086	5	100
1	12190	5.5	100
1	13294	6	100
1	14398	6.5	100
1	15502	7	100
1	16606	7.5	100
1	17710	8	100
1	18814	8.5	100
1	19918	9	100
1	21022	9.5	100
1	22124	10	100
1	22485	10.5	48
2	3	0	0
2	1139	0.5	12
2	2255	1	62
2	3359	1.5	112
2	4463	2	162
2	5567	2.5	212
2	6671	3	262
2	7775	3.5	312
2	8879	4	362
2	9983	4.5	412
2	11087	5	462
2	12191	5.5	512
2	13295	6	562
2	14399	6.5	612
2	15503	7	662
2	16607	7.5	712
2	17711	8	762
2	18815	8.5	812
2	19919	9	862
2	21023	9.5	912
2	22125	10	962
2	22486	10.5	950
3	3	0	0
3	1139	0.5	198
3	2255	1	206
3	3359	1.5	200
3	4463	2	200
3	5567	2.5	200
3	6671	3	200
3	7775	3.5	200
3	8879	4	200
3	9983	4.5	200
3	11087	5	200
3	12191	5.5	200
3	13295	6	200
3	14399	6.5	200
3	15503	7	200
3	16607	7.5	200
3	17711	8	200
3	18815	8.5	200
3	19919	9	200
3	21023	9.5	200
3	22125	10	200
3	22486	10.5	96
4	4	0	0
4	1140	0.5	0
4	2256	1	0
4	3360	1.5	0
4	4464	2	0
4	5568	2.5	0
4	6672	3	0
4	7776	3.5	0
4	8880	4	0
4	9984	4.5	0
4	11088	5	0
4	12192	5.5	0
4	13296	6	0
4	14400	6.5	0
4	15504	7	0
4	16608	7.5	0
4	17712	8	0
4	18816	8.5	0
4	19920	9	0
4	21024	9.5	0
4	22126	10	0
4	22487	10.5	0
5	4	0	0
5	1140	0.5	201
5	2256	1	203
5	3360	1.5	200
5	4464	2	200
5	5568	2.5	200
5	6672	3	200
5	7776	3.5	200
5	8880	4	200
5	9984	4.5	200
5	11088	5	200
5	12192	5.5	200
5	13296	6	200
5	14400	6.5	200
5	15504	7	200
5	16608	7.5	200
5	17712	8	200
5	18816	8.5	200
5	19920	9	200
5	21024	9.5	200
5	22126	10	200
5	22487	10.5	96
6	6	0	0
6	1141	0.5	0
6	2257	1	0
6	3361	1.5	0
6	4465	2	0
6	5569	2.5	0
6	6673	3	0
6	7777	3.5	0
6	8881	4	0
6	9985	4.5	0
6	11089	5	0
6	12193	5.5	0
6	13297	6	0
6	14401	6.5	0
6	15505	7	0
6	16609	7.5	0
6	17713	8	0
6	18817	8.5	0
6	19921	9	0
6	21025	9.5	0
6	22127	10	0
6	22488	10.5	0
7	6	0	0
7	1141	0.5	102
7	2257	1	100
7	3361	1.5	100
7	4465	2	100
7	5569	2.5	100
7	6673	3	100
7	7777	3.5	100
7	8881	4	100
7	9985	4.5	100
7	11089	5	100
7	12193	5.5	100
7	13297	6	100
7	14401	6.5	100
7	15505	7	100
7	16609	7.5	100
7	17713	8	100
7	18817	8.5	100
7	19921	9	100
7	21025	9.5	100
7	22127	10	100
7	22488	10.5	48
8	218	0.18	0.18
8	229	0.185	0.18
8	245	0.19	0.18
8	256	0.195	0.18
8	272	0.2	0.18
8	283	0.205	0.18
8	299	0.21	0.18
8	312	0.215	0.18
8	329	0.22	0.18
8	342	0.225	0.18
8	359	0.23	0.18
8	372	0.235	0.18
8	389	0.24	0.18
8	402	0.245	0.18
8	419	0.25	0.18
8	432	0.255	0.18
8	449	0.26	0.18
8	462	0.265	0.18
8	479	0.27	0.18
8	492	0.275	0.18
8	509	0.28	0.18
8	522	0.285	0.18
8	539	0.29	0.18
8	552	0.295	0.18
8	569	0.3	0.18
8	582	0.305	0.18
8	599	0.31	0.18
8	612	0.315	0.18
8	629	0.32	0.18
8	642	0.325	0.18
8	659	0.33	0.18
8	672	0.335	0.18
8	689	0.34	0.18
8	702	0.345	0.18
8	719	0.35	0.18
8	732	0.355	0.18
8	749	0.36	0.18
8	762	0.365	0.18
8	779	0.37	0.18
8	792	0.375	0.18
8	809	0.38	0.18
8	822	0.385	0.18
8	839	0.39	0.18
8	852	0.395	0.18
8	869	0.4	0.18
8	882	0.405	0.18
8	898	0.41	0.18
8	911	0.415	0.18
8	927	0.42	0.18
8	940	0.425	0.18
8	956	0.43	0.18
8	969	0.435	0.18
8	984	0.44	0.18
8	997	0.445	0.18
8	1012	0.45	0.18
8	1025	0.455	0.18
8	1040	0.46	0.18
8	1053	0.465	0.18
8	1067	0.47	0.18
8	1080	0.475	0.18
8	1094	0.48	0.18
8	1107	0.485	0.18
8	1121	0.49	0.18
8	1134	0.495	0.18
8	1150	0.5	0.18
8	1163	0.505	0.18
8	1175	0.51	0.18
8	1188	0.515	0.18
8	1200	0.52	0.18
8	1213	0.525	0.18
8	1234	0.53	0.18
8	1257	0.54	0.185
8	1280	0.55	0.19
8	1302	0.56	0.195
8	1324	0.57	0.2
8	1346	0.58	0.205
8	1368	0.59	0.21
8	1390	0.6	0.215
8	1412	0.61	0.22
8	1434	0.62	0.225
8	1456	0.63	0.23
8	1478	0.64	0.235
8	1500	0.65	0.24
8	1522	0.66	0.245
8	1544	0.67	0.25
8	1566	0.68	0.255
8	1588	0.69	0.26
8	1610	0.7	0.265
8	1632	0.71	0.27
8	1654	0.72	0.275
8	1676	0.73	0.28
8	1698	0.74	0.285
8	1720	0.75	0.29
8	1742	0.76	0.295
8	1764	0.77	0.3
8	1786	0.78	0.305
8	1808	0.79	0.31
8	1830	0.8	0.315
8	1852	0.81	0.32
8	1874	0.82	0.325
8	1896	0.83	0.33
8	1918	0.84	0.335
8	1940	0.85	0.34
8	1962	0.86	0.345
8	1984	0.87	0.35
8	2006	0.88	0.355
8	2028	0.89	0.36
8	2050	0.9	0.365
8	2072	0.91	0.37
8	2094	0.92	0.375
8	2116	0.93	0.38
8	2138	0.94	0.385
8	2160	0.95	0.39
8	2182	0.96	0.395
8	2204	0.97	0.4
8	2226	0.98	0.405
8	2248	0.99	0.41
8	2274	1	0.415
8	2296	1.01	0.42
8	2318	1.02	0.425
8	2340	1.03	0.43
8	2362	1.04	0.435
8	2384	1.05	0.44
8	2406	1.06	0.445
8	2428	1.07	0.45
8	2450	1.08	0.455
8	2472	1.09	0.46
8	2494	1.1	0.465
8	2516	1.11	0.47
8	2538	1.12	0.475
8	2560	1.13	0.48
8	2582	1.14	0.485
8	2604	1.15	0.49
8	2626	1.16	0.495
8	2648	1.17	0.5
8	2670	1.18	0.505
8	2692	1.19	0.51
8	2714	1.2	0.515
8	2736	1.21	0.52
8	2758	1.22	0.525
8	2780	1.23	0.53
8	2802	1.24	0.535
8	2824	1.25	0.54
8	2846	1.26	0.545
8	2868	1.27	0.55
8	2890	1.28	0.555
8	2912	1.29	0.56
8	2934	1.3	0.565
8	2956	1.31	0.57
8	2978	1.32	0.575
8	3000	1.33	0.58
8	3022	1.34	0.585
8	3044	1.35	0.59
8	3066	1.36	0.595
8	3088	1.37	0.6
8	3110	1.38	0.605
8	3132	1.39	0.61
8	3154	1.4	0.615
8	3176	1.41	0.62
8	3198	1.42	0.625
8	3220	1.43	0.63
8	3242	1.44	0.635
8	3264	1.45	0.64
8	3286	1.46	0.645
8	3308	1.47	0.65
8	3330	1.48	0.655
8	3352	1.49	0.66
8	3378	1.5	0.665
8	3400	1.51	0.67
8	3422	1.52	0.675
8	3444	1.53	0.68
8	3466	1.54	0.685
8	3488	1.55	0.69
8	3510	1.56	0.695
8	3532	1.57	0.7
8	3554	1.58	0.705
8	3576	1.59	0.71
8	3598	1.6	0.715
8	3620	1.61	0.72
8	3642	1.62	0.725
8	3664	1.63	0.73
8	3686	1.64	0.735
8	3708	1.65	0.74
8	3730	1.66	0.745
8	3752	1.67	0.75
8	3774	1.68	0.755
8	3796	1.69	0.76
8	3818	1.7	0.765
8	3840	1.71	0.77
8	3862	1.72	0.775
8	3884	1.73	0.78
8	3906	1.74	0.785
8	3928	1.75	0.79
8	3950	1.76	0.795
8	3972	1.77	0.8
8	3994	1.78	0.805
8	4016	1.79	0.81
8	4038	1.8	0.815
8	4060	1.81	0.82
8	4082	1.82	0.825
8	4104	1.83	0.83
8	4126	1.84	0.835
8	4148	1.85	0.84
8	4170	1.86	0.845
8	4192	1.87	0.85
8	4214	1.88	0.855
8	4236	1.89	0.86
8	4258	1.9	0.865
8	4280	1.91	0.87
8	4302	1.92	0.875
8	4324	1.93	0.88
8	4346	1.94	0.885
8	4368	1.95	0.89
8	4390	1.96	0.895
8	4412	1.97	0.9
8	4434	1.98	0.905
8	4456	1.99	0.91
8	4482	2	0.915
8	4504	2.01	0.92
8	4526	2.02	0.925
8	4548	2.03	0.93
8	4570	2.04	0.935
8	4592	2.05	0.94
8	4614	2.06	0.945
8	4636	2.07	0.95
8	4658	2.08	0.955
8	4680	2.09	0.96
8	4702	2.1	0.965
8	4724	2.11	0.97
8	4746	2.12	0.975
8	4768	2.13	0.98
8	4790	2.14	0.985
8	4812	2.15	0.99
8	4834	2.16	0.995
8	4856	2.17	1
8	4878	2.18	1.005
8	4900	2.19	1.01
8	4922	2.2	1.015
8	4944	2.21	1.02
8	4966	2.22	1.025
8	4988	2.23	1.03
8	5010	2.24	1.035
8	5032	2.25	1.04
8	5054	2.26	1.045
8	5076	2.27	1.05
8	5098	2.28	1.055
8	5120	2.29	1.06
8	5142	2.3	1.065
8	5164	2.31	1.07
8	5186	2.32	1.075
8	5208	2.33	1.08
8	5230	2.34	1.085
8	5252	2.35	1.09
8	5274	2.36	1.095
8	5296	2.37	1.1
8	5318	2.38	1.105
8	5340	2.39	1.11
8	5362	2.4	1.115
8	5384	2.41	1.12
8	5406	2.42	1.125
8	5428	2.43	1.13
8	5450	2.44	1.135
8	5472	2.45	1.14
8	5494	2.46	1.145
8	5516	2.47	1.15
8	5538	2.48	1.155
8	5560	2.49	1.16
8	5586	2.5	1.165
8	5608	2.51	1.17
8	5630	2.52	1.175
8	5652	2.53	1.18
8	5674	2.54	1.185
8	5696	2.55	1.19
8	5718	2.56	1.195
8	5740	2.57	1.2
8	5762	2.58	1.205
8	5784	2.59	1.21
8	5806	2.6	1.215
8	5828	2.61	1.22
8	5850	2.62	1.225
8	5872	2.63	1.23
8	5894	2.64	1.235
8	5916	2.65	1.24
8	5938	2.66	1.245
8	5960	2.67	1.25
8	5982	2.68	1.255
8	6004	2.69	1.26
8	6026	2.7	1.265
8	6048	2.71	1.27
8	6070	2.72	1.275
8	6092	2.73	1.28
8	6114	2.74	1.285
8	6136	2.75	1.29
8	6158	2.76	1.295
8	6180	2.77	1.3
8	6202	2.78	1.305
8	6224	2.79	1.31
8	6246	2.8	1.315
8	6268	2.81	1.32
8	6290	2.82	1.325
8	6312	2.83	1.33
8	6334	2.84	1.335
8	6356	2.85	1.34
8	6378	2.86	1.345
8	6400	2.87	1.35
8	6422	2.88	1.355
8	6444	2.89	1.36
8	6466	2.9	1.365
8	6488	2.91	1.37
8	6510	2.92	1.375
8	6532	2.93	1.38
8	6554	2.94	1.385
8	6576	2.95	1.39
8	6598	2.96	1.395
8	6620	2.97	1.4
8	6642	2.98	1.405
8	6664	2.99	1.41
8	6690	3	1.415
8	6712	3.01	1.42
8	6734	3.02	1.425
8	6756	3.03	1.43
8	6778	3.04	1.435
8	6800	3.05	1.44
8	6822	3.06	1.445
8	6844	3.07	1.45
8	6866	3.08	1.455
8	6888	3.09	1.46
8	6910	3.1	1.465
8	6932	3.11	1.47
8	6954	3.12	1.475
8	6976	3.13	1.48
8	6998	3.14	1.485
8	7020	3.15	1.49
8	7042	3.16	1.495
8	7064	3.17	1.5
8	7086	3.18	1.505
8	7108	3.19	1.51
8	7130	3.2	1.515
8	7152	3.21	1.52
8	7174	3.22	1.525
8	7196	3.23	1.53
8	7218	3.24	1.535
8	7240	3.25	1.54
8	7262	3.26	1.545
8	7284	3.27	1.55
8	7306	3.28	1.555
8	7328	3.29	1.56
8	7350	3.3	1.565
8	7372	3.31	1.57
8	7394	3.32	1.575
8	7416	3.33	1.58
8	7438	3.34	1.585
8	7460	3.35	1.59
8	7482	3.36	1.595
8	7504	3.37	1.6
8	7526	3.38	1.605
8	7548	3.39	1.61
8	7570	3.4	1.615
8	7592	3.41	1.62
8	7614	3.42	1.625
8	7636	3.43	1.63
8	7658	3.44	1.635
8	7680	3.45	1.64
8	7702	3.46	1.645
8	7724	3.47	1.65
8	7746	3.48	1.655
8	7768	3.49	1.66
8	7794	3.5	1.665
8	7816	3.51	1.67
8	7838	3.52	1.675
8	7860	3.53	1.68
8	7882	3.54	1.685
8	7904	3.55	1.69
8	7926	3.56	1.695
8	7948	3.57	1.7
8	7970	3.58	1.705
8	7992	3.59	1.71
8	8014	3.6	1.715
8	8036	3.61	1.72
8	8058	3.62	1.725
8	8080	3.63	1.73
8	8102	3.64	1.735
8	8124	3.65	1.74
8	8146	3.66	1.745
8	8168	3.67	1.75
8	8190	3.68	1.755
8	8212	3.69	1.76
8	8234	3.7	1.765
8	8256	3.71	1.77
8	8278	3.72	1.775
8	8300	3.73	1.78
8	8322	3.74	1.785
8	8344	3.75	1.79
8	8366	3.76	1.795
8	8388	3.77	1.8
8	8410	3.78	1.805
8	8432	3.79	1.81
8	8454	3.8	1.815
8	8476	3.81	1.82
8	8498	3.82	1.825
8	8520	3.83	1.83
8	8542	3.84	1.835
8	8564	3.85	1.84
8	8586	3.86	1.845
8	8608	3.87	1.85
8	8630	3.88	1.855
8	8652	3.89	1.86
8	8674	3.9	1.865
8	8696	3.91	1.87
8	8718	3.92	1.875
8	8740	3.93	1.88
8	8762	3.94	1.885
8	8784	3.95	1.89
8	8806	3.96	1.895
8	8828	3.97	1.9
8	8850	3.98	1.905
8	8872	3.99	1.91
8	8898	4	1.915
8	8920	4.01	1.92
8	8942	4.02	1.925
8	8964	4.03	1.93
8	8986	4.04	1.935
8	9008	4.05	1.94
8	9030	4.06	1.945
8	9052	4.07	1.95
8	9074	4.08	1.955
8	9096	4.09	1.96
8	9118	4.1	1.965
8	9140	4.11	1.97
8	9162	4.12	1.975
8	9184	4.13	1.98
8	9206	4.14	1.985
8	9228	4.15	1.99
8	9250	4.16	1.995
8	9272	4.17	2
8	9294	4.18	2.005
8	9316	4.19	2.01
8	9338	4.2	2.015
8	9360	4.21	2.02
8	9382	4.22	2.025
8	9404	4.23	2.03
8	9426	4.24	2.035
8	9448	4.25	2.04
8	9470	4.26	2.045
8	9492	4.27	2.05
8	9514	4.28	2.055
8	9536	4.29	2.06
8	9558	4.3	2.065
8	9580	4.31	2.07
8	9602	4.32	2.075
8	9624	4.33	2.08
8	9646	4.34	2.085
8	9668	4.35	2.09
8	9690	4.36	2.095
8	9712	4.37	2.1
8	9734	4.38	2.105
8	9756	4.39	2.11
8	9778	4.4	2.115
8	9800	4.41	2.12
8	9822	4.42	2.125
8	9844	4.43	2.13
8	9866	4.44	2.135
8	9888	4.45	2.14
8	9910	4.46	2.145
8	9932	4.47	2.15
8	9954	4.48	2.155
8	9976	4.49	2.16
8	10002	4.5	2.165
8	10024	4.51	2.17
8	10046	4.52	2.175
8	10068	4.53	2.18
8	10090	4.54	2.185
8	10112	4.55	2.19
8	10134	4.56	2.195
8	10156	4.57	2.2
8	10178	4.58	2.205
8	10200	4.59	2.21
8	10222	4.6	2.215
8	10244	4.61	2.22
8	10266	4.62	2.225
8	10288	4.63	2.23
8	10310	4.64	2.235
8	10332	4.65	2.24
8	10354	4.66	2.245
8	10376	4.67	2.25
8	10398	4.68	2.255
8	10420	4.69	2.26
8	10442	4.7	2.265
8	10464	4.71	2.27
8	10486	4.72	2.275
8	10508	4.73	2.28
8	10530	4.74	2.285
8	10552	4.75	2.29
8	10574	4.76	2.295
8	10596	4.77	2.3
8	10618	4.78	2.305
8	10640	4.79	2.31
8	10662	4.8	2.315
8	10684	4.81	2.32
8	10706	4.82	2.325
8	10728	4.83	2.33
8	10750	4.84	2.335
8	10772	4.85	2.34
8	10794	4.86	2.345
8	10816	4.87	2.35
8	10838	4.88	2.355
8	10860	4.89	2.36
8	10882	4.9	2.365
8	10904	4.91	2.37
8	10926	4.92	2.375
8	10948	4.93	2.38
8	10970	4.94	2.385
8	10992	4.95	2.39
8	11014	4.96	2.395
8	11036	4.97	2.4
8	11058	4.98	2.405
8	11080	4.99	2.41
8	11106	5	2.415
8	11128	5.01	2.42
8	11150	5.02	2.425
8	11172	5.03	2.43
8	11194	5.04	2.435
8	11216	5.05	2.44
8	11238	5.06	2.445
8	11260	5.07	2.45
8	11282	5.08	2.455
8	11304	5.09	2.46
8	11326	5.1	2.465
8	11348	5.11	2.47
8	11370	5.12	2.475
8	11392	5.13	2.48
8	11414	5.14	2.485
8	11436	5.15	2.49
8	11458	5.16	2.495
8	11480	5.17	2.5
8	11502	5.18	2.505
8	11524	5.19	2.51
8	11546	5.2	2.515
8	11568	5.21	2.52
8	11590	5.22	2.525
8	11612	5.23	2.53
8	11634	5.24	2.535
8	11656	5.25	2.54
8	11678	5.26	2.545
8	11700	5.27	2.55
8	11722	5.28	2.555
8	11744	5.29	2.56
8	11766	5.3	2.565
8	11788	5.31	2.57
8	11810	5.32	2.575
8	11832	5.33	2.58
8	11854	5.34	2.585
8	11876	5.35	2.59
8	11898	5.36	2.595
8	11920	5.37	2.6
8	11942	5.38	2.605
8	11964	5.39	2.61
8	11986	5.4	2.615
8	12008	5.41	2.62
8	12030	5.42	2.625
8	12052	5.43	2.63
8	12074	5.44	2.635
8	12096	5.45	2.64
8	12118	5.46	2.645
8	12140	5.47	2.65
8	12162	5.48	2.655
8	12184	5.49	2.66
8	12210	5.5	2.665
8	12232	5.51	2.67
8	12254	5.52	2.675
8	12276	5.53	2.68
8	12298	5.54	2.685
8	12320	5.55	2.69
8	12342	5.56	2.695
8	12364	5.57	2.7
8	12386	5.58	2.705
8	12408	5.59	2.71
8	12430	5.6	2.715
8	12452	5.61	2.72
8	12474	5.62	2.725
8	12496	5.63	2.73
8	12518	5.64	2.735
8	12540	5.65	2.74
8	12562	5.66	2.745
8	12584	5.67	2.75
8	12606	5.68	2.755
8	12628	5.69	2.76
8	12650	5.7	2.765
8	12672	5.71	2.77
8	12694	5.72	2.775
8	12716	5.73	2.78
8	12738	5.74	2.785
8	12760	5.75	2.79
8	12782	5.76	2.795
8	12804	5.77	2.8
8	12826	5.78	2.805
8	12848	5.79	2.81
8	12870	5.8	2.815
8	12892	5.81	2.82
8	12914	5.82	2.825
8	12936	5.83	2.83
8	12958	5.84	2.835
8	12980	5.85	2.84
8	13002	5.86	2.845
8	13024	5.87	2.85
8	13046	5.88	2.855
8	13068	5.89	2.86
8	13090	5.9	2.865
8	13112	5.91	2.87
8	13134	5.92	2.875
8	13156	5.93	2.88
8	13178	5.94	2.885
8	13200	5.95	2.89
8	13222	5.96	2.895
8	13244	5.97	2.9
8	13266	5.98	2.905
8	13288	5.99	2.91
8	13314	6	2.915
8	13336	6.01	2.92
8	13358	6.02	2.925
8	13380	6.03	2.93
8	13402	6.04	2.935
8	13424	6.05	2.94
8	13446	6.06	2.945
8	13468	6.07	2.95
8	13490	6.08	2.955
8	13512	6.09	2.96
8	13534	6.1	2.965
8	13556	6.11	2.97
8	13578	6.12	2.975
8	13600	6.13	2.98
8	13622	6.14	2.985
8	13644	6.15	2.99
8	13666	6.16	2.995
8	13688	6.17	3
8	13710	6.18	3.005
8	13732	6.19	3.01
8	13754	6.2	3.015
8	13776	6.21	3.02
8	13798	6.22	3.025
8	13820	6.23	3.03
8	13842	6.24	3.035
8	13864	6.25	3.04
8	13886	6.26	3.045
8	13908	6.27	3.05
8	13930	6.28	3.055
8	13952	6.29	3.06
8	13974	6.3	3.065
8	13996	6.31	3.07
8	14018	6.32	3.075
8	14040	6.33	3.08
8	14062	6.34	3.085
8	14084	6.35	3.09
8	14106	6.36	3.095
8	14128	6.37	3.1
8	14150	6.38	3.105
8	14172	6.39	3.11
8	14194	6.4	3.115
8	14216	6.41	3.12
8	14238	6.42	3.125
8	14260	6.43	3.13
8	14282	6.44	3.135
8	14304	6.45	3.14
8	14326	6.46	3.145
8	14348	6.47	3.15
8	14370	6.48	3.155
8	14392	6.49	3.16
8	14418	6.5	3.165
8	14440	6.51	3.17
8	14462	6.52	3.175
8	14484	6.53	3.18
8	14506	6.54	3.185
8	14528	6.55	3.19
8	14550	6.56	3.195
8	14572	6.57	3.2
8	14594	6.58	3.205
8	14616	6.59	3.21
8	14638	6.6	3.215
8	14660	6.61	3.22
8	14682	6.62	3.225
8	14704	6.63	3.23
8	14726	6.64	3.235
8	14748	6.65	3.24
8	14770	6.66	3.245
8	14792	6.67	3.25
8	14814	6.68	3.255
8	14836	6.69	3.26
8	14858	6.7	3.265
8	14880	6.71	3.27
8	14902	6.72	3.275
8	14924	6.73	3.28
8	14946	6.74	3.285
8	14968	6.75	3.29
8	14990	6.76	3.295
8	15012	6.77	3.3
8	15034	6.78	3.305
8	15056	6.79	3.31
8	15078	6.8	3.315
8	15100	6.81	3.32
8	15122	6.82	3.325
8	15144	6.83	3.33
8	15166	6.84	3.335
8	15188	6.85	3.34
8	15210	6.86	3.345
8	15232	6.87	3.35
8	15254	6.88	3.355
8	15276	6.89	3.36
8	15298	6.9	3.365
8	15320	6.91	3.37
8	15342	6.92	3.375
8	15364	6.93	3.38
8	15386	6.94	3.385
8	15408	6.95	3.39
8	15430	6.96	3.395
8	15452	6.97	3.4
8	15474	6.98	3.405
8	15496	6.99	3.41
8	15522	7	3.415
8	15544	7.01	3.42
8	15566	7.02	3.425
8	15588	7.03	3.43
8	15610	7.04	3.435
8	15632	7.05	3.44
8	15654	7.06	3.445
8	15676	7.07	3.45
8	15698	7.08	3.455
8	15720	7.09	3.46
8	15742	7.1	3.465
8	15764	7.11	3.47
8	15786	7.12	3.475
8	15808	7.13	3.48
8	15830	7.14	3.485
8	15852	7.15	3.49
8	15874	7.16	3.495
8	15896	7.17	3.5
8	15918	7.18	3.505
8	15940	7.19	3.51
8	15962	7.2	3.515
8	15984	7.21	3.52
8	16006	7.22	3.525
8	16028	7.23	3.53
8	16050	7.24	3.535
8	16072	7.25	3.54
8	16094	7.26	3.545
8	16116	7.27	3.55
8	16138	7.28	3.555
8	16160	7.29	3.56
8	16182	7.3	3.565
8	16204	7.31	3.57
8	16226	7.32	3.575
8	16248	7.33	3.58
8	16270	7.34	3.585
8	16292	7.35	3.59
8	16314	7.36	3.595
8	16336	7.37	3.6
8	16358	7.38	3.605
8	16380	7.39	3.61
8	16402	7.4	3.615
8	16424	7.41	3.62
8	16446	7.42	3.625
8	16468	7.43	3.63
8	16490	7.44	3.635
8	16512	7.45	3.64
8	16534	7.46	3.645
8	16556	7.47	3.65
8	16578	7.48	3.655
8	16600	7.49	3.66
8	16626	7.5	3.665
8	16648	7.51	3.67
8	16670	7.52	3.675
8	16692	7.53	3.68
8	16714	7.54	3.685
8	16736	7.55	3.69
8	16758	7.56	3.695
8	16780	7.57	3.7
8	16802	7.58	3.705
8	16824	7.59	3.71
8	16846	7.6	3.715
8	16868	7.61	3.72
8	16890	7.62	3.725
8	16912	7.63	3.73
8	16934	7.64	3.735
8	16956	7.65	3.74
8	16978	7.66	3.745
8	17000	7.67	3.75
8	17022	7.68	3.755
8	17044	7.69	3.76
8	17066	7.7	3.765
8	17088	7.71	3.77
8	17110	7.72	3.775
8	17132	7.73	3.78
8	17154	7.74	3.785
8	17176	7.75	3.79
8	17198	7.76	3.795
8	17220	7.77	3.8
8	17242	7.78	3.805
8	17264	7.79	3.81
8	17286	7.8	3.815
8	17308	7.81	3.82
8	17330	7.82	3.825
8	17352	7.83	3.83
8	17374	7.84	3.835
8	17396	7.85	3.84
8	17418	7.86	3.845
8	17440	7.87	3.85
8	17462	7.88	3.855
8	17484	7.89	3.86
8	17506	7.9	3.865
8	17528	7.91	3.87
8	17550	7.92	3.875
8	17572	7.93	3.88
8	17594	7.94	3.885
8	17616	7.95	3.89
8	17638	7.96	3.895
8	17660	7.97	3.9
8	17682	7.98	3.905
8	17704	7.99	3.91
8	17730	8	3.915
8	17752	8.01	3.92
8	17774	8.02	3.925
8	17796	8.03	3.93
8	17818	8.04	3.935
8	17840	8.05	3.94
8	17862	8.06	3.945
8	17884	8.07	3.95
8	17906	8.08	3.955
8	17928	8.09	3.96
8	17950	8.1	3.965
8	17972	8.11	3.97
8	17994	8.12	3.975
8	18016	8.13	3.98
8	18038	8.14	3.985
8	18060	8.15	3.99
8	18082	8.16	3.995
8	18104	8.17	4
8	18126	8.18	4.005
8	18148	8.19	4.01
8	18170	8.2	4.015
8	18192	8.21	4.02
8	18214	8.22	4.025
8	18236	8.23	4.03
8	18258	8.24	4.035
8	18280	8.25	4.04
8	18302	8.26	4.045
8	18324	8.27	4.05
8	18346	8.28	4.055
8	18368	8.29	4.06
8	18390	8.3	4.065
8	18412	8.31	4.07
8	18434	8.32	4.075
8	18456	8.33	4.08
8	18478	8.34	4.085
8	18500	8.35	4.09
8	18522	8.36	4.095
8	18544	8.37	4.1
8	18566	8.38	4.105
8	18588	8.39	4.11
8	18610	8.4	4.115
8	18632	8.41	4.12
8	18654	8.42	4.125
8	18676	8.43	4.13
8	18698	8.44	4.135
8	18720	8.45	4.14
8	18742	8.46	4.145
8	18764	8.47	4.15
8	18786	8.48	4.155
8	18808	8.49	4.16
8	18834	8.5	4.165
8	18856	8.51	4.17
8	18878	8.52	4.175
8	18900	8.53	4.18
8	18922	8.54	4.185
8	18944	8.55	4.19
8	18966	8.56	4.195
8	18988	8.57	4.2
8	19010	8.58	4.205
8	19032	8.59	4.21
8	19054	8.6	4.215
8	19076	8.61	4.22
8	19098	8.62	4.225
8	19120	8.63	4.23
8	19142	8.64	4.235
8	19164	8.65	4.24
8	19186	8.66	4.245
8	19208	8.67	4.25
8	19230	8.68	4.255
8	19252	8.69	4.26
8	19274	8.7	4.265
8	19296	8.71	4.27
8	19318	8.72	4.275
8	19340	8.73	4.28
8	19362	8.74	4.285
8	19384	8.75	4.29
8	19406	8.76	4.295
8	19428	8.77	4.3
8	19450	8.78	4.305
8	19472	8.79	4.31
8	19494	8.8	4.315
8	19516	8.81	4.32
8	19538	8.82	4.325
8	19560	8.83	4.33
8	19582	8.84	4.335
8	19604	8.85	4.34
8	19626	8.86	4.345
8	19648	8.87	4.35
8	19670	8.88	4.355
8	19692	8.89	4.36
8	19714	8.9	4.365
8	19736	8.91	4.37
8	19758	8.92	4.375
8	19780	8.93	4.38
8	19802	8.94	4.385
8	19824	8.95	4.39
8	19846	8.96	4.395
8	19868	8.97	4.4
8	19890	8.98	4.405
8	19912	8.99	4.41
8	19938	9	4.415
8	19960	9.01	4.42
8	19982	9.02	4.425
8	20004	9.03	4.43
8	20026	9.04	4.435
8	20048	9.05	4.44
8	20070	9.06	4.445
8	20092	9.07	4.45
8	20114	9.08	4.455
8	20136	9.09	4.46
8	20158	9.1	4.465
8	20180	9.11	4.47
8	20202	9.12	4.475
8	20224	9.13	4.48
8	20246	9.14	4.485
8	20268	9.15	4.49
8	20290	9.16	4.495
8	20312	9.17	4.5
8	20334	9.18	4.505
8	20356	9.19	4.51
8	20378	9.2	4.515
8	20400	9.21	4.52
8	20422	9.22	4.525
8	20444	9.23	4.53
8	20466	9.24	4.535
8	20488	9.25	4.54
8	20510	9.26	4.545
8	20532	9.27	4.55
8	20554	9.28	4.555
8	20576	9.29	4.56
8	20598	9.3	4.565
8	20620	9.31	4.57
8	20642	9.32	4.575
8	20664	9.33	4.58
8	20686	9.34	4.585
8	20708	9.35	4.59
8	20730	9.36	4.595
8	20752	9.37	4.6
8	20774	9.38	4.605
8	20796	9.39	4.61
8	20818	9.4	4.615
8	20840	9.41	4.62
8	20862	9.42	4.625
8	20884	9.43	4.63
8	20906	9.44	4.635
8	20928	9.45	4.64
8	20950	9.46	4.645
8	20972	9.47	4.65
8	20994	9.48	4.655
8	21016	9.49	4.66
8	21042	9.5	4.665
8	21064	9.51	4.67
8	21086	9.52	4.675
8	21108	9.53	4.68
8	21130	9.54	4.685
8	21152	9.55	4.69
8	21174	9.56	4.695
8	21196	9.57	4.7
8	21218	9.58	4.705
8	21240	9.59	4.71
8	21262	9.6	4.715
8	21284	9.61	4.72
8	21306	9.62	4.725
8	21328	9.63	4.73
8	21350	9.64	4.735
8	21372	9.65	4.74
8	21394	9.66	4.745
8	21416	9.67	4.75
8	21438	9.68	4.755
8	21460	9.69	4.76
8	21482	9.7	4.765
8	21504	9.71	4.77
8	21526	9.72	4.775
8	21548	9.73	4.78
8	21570	9.74	4.785
8	21592	9.75	4.79
8	21614	9.76	4.795
8	21636	9.77	4.8
8	21658	9.78	4.805
8	21680	9.79	4.81
8	21702	9.8	4.815
8	21724	9.81	4.82
8	21746	9.82	4.825
8	21768	9.83	4.83
8	21790	9.84	4.835
8	21812	9.85	4.84
8	21834	9.86	4.845
8	21856	9.87	4.85
8	21878	9.88	4.855
8	21900	9.89	4.86
8	21922	9.9	4.865
8	21944	9.91	4.87
8	21966	9.92	4.875
8	21988	9.93	4.88
8	22010	9.94	4.885
8	22032	9.95	4.89
8	22054	9.96	4.895
8	22076	9.97	4.9
8	22098	9.98	4.905
8	22120	9.99	4.91
8	22144	10	4.915
8	22163	10.01	4.92
8	22182	10.02	4.925
8	22199	10.03	4.93
8	22215	10.04	4.935
8	22231	10.05	4.94
8	22246	10.06	4.945
8	22261	10.07	4.95
8	22276	10.08	4.955
8	22290	10.09	4.96
8	22304	10.1	4.965
8	22318	10.11	4.97
8	22331	10.12	4.975
8	22344	10.13	4.98
8	22357	10.14	4.985
8	22368	10.15	4.99
8	22379	10.16	4.995
8	22390	10.17	5
8	22399	10.18	5.005
8	22408	10.19	5.01
8	22417	10.2	5.015
8	22424	10.21	5.02
8	22431	10.22	5.025
8	22438	10.23	5.03
8	22444	10.24	5.035
8	22450	10.25	5.04
8	22456	10.26	5.045
8	22461	10.27	5.05
8	22466	10.28	5.055
8	22471	10.29	5.06
8	22474	10.3	5.065
8	22477	10.31	5.07
8	22480	10.32	5.075
9	220	0.18	0.18
9	247	0.19	0.18
9	274	0.2	0.18
9	301	0.21	0.18
9	331	0.22	0.18
9	361	0.23	0.18
9	391	0.24	0.18
9	421	0.25	0.18
9	451	0.26	0.18
9	481	0.27	0.18
9	511	0.28	0.18
9	541	0.29	0.18
9	571	0.3	0.18
9	601	0.31	0.18
9	631	0.32	0.18
9	661	0.33	0.18
9	691	0.34	0.18
9	721	0.35	0.18
9	751	0.36	0.18
9	781	0.37	0.18
9	811	0.38	0.18
9	841	0.39	0.18
9	871	0.4	0.18
9	900	0.41	0.18
9	929	0.42	0.18
9	958	0.43	0.18
9	986	0.44	0.18
9	1014	0.45	0.18
9	1042	0.46	0.18
9	1069	0.47	0.18
9	1096	0.48	0.18
9	1123	0.49	0.18
9	1152	0.5	0.18
9	1177	0.51	0.18
9	1202	0.52	0.18
9	1225	0.53	0.18
9	1248	0.54	0.18
9	1271	0.55	0.18
9	1294	0.56	0.18
9	1316	0.57	0.18
9	1338	0.58	0.18
9	1360	0.59	0.18
9	1382	0.6	0.18
9	1404	0.61	0.18
9	1426	0.62	0.18
9	1448	0.63	0.18
9	1470	0.64	0.18
9	1492	0.65	0.18
9	1514	0.66	0.18
9	1536	0.67	0.18
9	1558	0.68	0.18
9	1580	0.69	0.18
9	1602	0.7	0.18
9	1624	0.71	0.18
9	1646	0.72	0.18
9	1668	0.73	0.18
9	1690	0.74	0.18
9	1712	0.75	0.18
9	1734	0.76	0.18
9	1756	0.77	0.18
9	1778	0.78	0.18
9	1800	0.79	0.18
9	1822	0.8	0.18
9	1844	0.81	0.18
9	1866	0.82	0.18
9	1888	0.83	0.18
9	1910	0.84	0.18
9	1932	0.85	0.18
9	1954	0.86	0.18
9	1976	0.87	0.18
9	1998	0.88	0.18
9	2020	0.89	0.18
9	2042	0.9	0.18
9	2064	0.91	0.18
9	2086	0.92	0.18
9	2108	0.93	0.18
9	2130	0.94	0.18
9	2152	0.95	0.18
9	2174	0.96	0.18
9	2196	0.97	0.18
9	2218	0.98	0.18
9	2240	0.99	0.18
9	2266	1	0.18
9	2288	1.01	0.18
9	2310	1.02	0.18
9	2332	1.03	0.18
9	2354	1.04	0.18
9	2376	1.05	0.18
9	2398	1.06	0.18
9	2420	1.07	0.18
9	2442	1.08	0.18
9	2464	1.09	0.18
9	2486	1.1	0.18
9	2508	1.11	0.18
9	2530	1.12	0.18
9	2552	1.13	0.18
9	2574	1.14	0.18
9	2596	1.15	0.18
9	2618	1.16	0.18
9	2640	1.17	0.18
9	2662	1.18	0.18
9	2684	1.19	0.18
9	2706	1.2	0.18
9	2728	1.21	0.18
9	2750	1.22	0.18
9	2772	1.23	0.18
9	2794	1.24	0.18
9	2816	1.25	0.18
9	2838	1.26	0.18
9	2860	1.27	0.18
9	2882	1.28	0.18
9	2904	1.29	0.18
9	2926	1.3	0.18
9	2948	1.31	0.18
9	2970	1.32	0.18
9	2992	1.33	0.18
9	3014	1.34	0.18
9	3036	1.35	0.18
9	3058	1.36	0.18
9	3080	1.37	0.18
9	3102	1.38	0.18
9	3124	1.39	0.18
9	3146	1.4	0.18
9	3168	1.41	0.18
9	3190	1.42	0.18
9	3212	1.43	0.18
9	3234	1.44	0.18
9	3256	1.45	0.18
9	3278	1.46	0.18
9	3300	1.47	0.18
9	3322	1.48	0.18
9	3344	1.49	0.18
9	3370	1.5	0.18
9	3392	1.51	0.18
9	3414	1.52	0.18
9	3436	1.53	0.18
9	3458	1.54	0.18
9	3480	1.55	0.18
9	3502	1.56	0.18
9	3524	1.57	0.18
9	3546	1.58	0.18
9	3568	1.59	0.18
9	3590	1.6	0.18
9	3612	1.61	0.18
9	3634	1.62	0.18
9	3656	1.63	0.18
9	3678	1.64	0.18
9	3700	1.65	0.18
9	3722	1.66	0.18
9	3744	1.67	0.18
9	3766	1.68	0.18
9	3788	1.69	0.18
9	3810	1.7	0.18
9	3832	1.71	0.18
9	3854	1.72	0.18
9	3876	1.73	0.18
9	3898	1.74	0.18
9	3920	1.75	0.18
9	3942	1.76	0.18
9	3964	1.77	0.18
9	3986	1.78	0.18
9	4008	1.79	0.18
9	4030	1.8	0.18
9	4052	1.81	0.18
9	4074	1.82	0.18
9	4096	1.83	0.18
9	4118	1.84	0.18
9	4140	1.85	0.18
9	4162	1.86	0.18
9	4184	1.87	0.18
9	4206	1.88	0.18
9	4228	1.89	0.18
9	4250	1.9	0.18
9	4272	1.91	0.18
9	4294	1.92	0.18
9	4316	1.93	0.18
9	4338	1.94	0.18
9	4360	1.95	0.18
9	4382	1.96	0.18
9	4404	1.97	0.18
9	4426	1.98	0.18
9	4448	1.99	0.18
9	4474	2	0.18
9	4496	2.01	0.18
9	4518	2.02	0.18
9	4540	2.03	0.18
9	4562	2.04	0.18
9	4584	2.05	0.18
9	4606	2.06	0.18
9	4628	2.07	0.18
9	4650	2.08	0.18
9	4672	2.09	0.18
9	4694	2.1	0.18
9	4716	2.11	0.18
9	4738	2.12	0.18
9	4760	2.13	0.18
9	4782	2.14	0.18
9	4804	2.15	0.18
9	4826	2.16	0.18
9	4848	2.17	0.18
9	4870	2.18	0.18
9	4892	2.19	0.18
9	4914	2.2	0.18
9	4936	2.21	0.18
9	4958	2.22	0.18
9	4980	2.23	0.18
9	5002	2.24	0.18
9	5024	2.25	0.18
9	5046	2.26	0.18
9	5068	2.27	0.18
9	5090	2.28	0.18
9	5112	2.29	0.18
9	5134	2.3	0.18
9	5156	2.31	0.18
9	5178	2.32	0.18
9	5200	2.33	0.18
9	5222	2.34	0.18
9	5244	2.35	0.18
9	5266	2.36	0.18
9	5288	2.37	0.18
9	5310	2.38	0.18
9	5332	2.39	0.18
9	5354	2.4	0.18
9	5376	2.41	0.18
9	5398	2.42	0.18
9	5420	2.43	0.18
9	5442	2.44	0.18
9	5464	2.45	0.18
9	5486	2.46	0.18
9	5508	2.47	0.18
9	5530	2.48	0.18
9	5552	2.49	0.18
9	5578	2.5	0.18
9	5600	2.51	0.18
9	5622	2.52	0.18
9	5644	2.53	0.18
9	5666	2.54	0.18
9	5688	2.55	0.18
9	5710	2.56	0.18
9	5732	2.57	0.18
9	5754	2.58	0.18
9	5776	2.59	0.18
9	5798	2.6	0.18
9	5820	2.61	0.18
9	5842	2.62	0.18
9	5864	2.63	0.18
9	5886	2.64	0.18
9	5908	2.65	0.18
9	5930	2.66	0.18
9	5952	2.67	0.18
9	5974	2.68	0.18
9	5996	2.69	0.18
9	6018	2.7	0.18
9	6040	2.71	0.18
9	6062	2.72	0.18
9	6084	2.73	0.18
9	6106	2.74	0.18
9	6128	2.75	0.18
9	6150	2.76	0.18
9	6172	2.77	0.18
9	6194	2.78	0.18
9	6216	2.79	0.18
9	6238	2.8	0.18
9	6260	2.81	0.18
9	6282	2.82	0.18
9	6304	2.83	0.18
9	6326	2.84	0.18
9	6348	2.85	0.18
9	6370	2.86	0.18
9	6392	2.87	0.18
9	6414	2.88	0.18
9	6436	2.89	0.18
9	6458	2.9	0.18
9	6480	2.91	0.18
9	6502	2.92	0.18
9	6524	2.93	0.18
9	6546	2.94	0.18
9	6568	2.95	0.18
9	6590	2.96	0.18
9	6612	2.97	0.18
9	6634	2.98	0.18
9	6656	2.99	0.18
9	6682	3	0.18
9	6704	3.01	0.18
9	6726	3.02	0.18
9	6748	3.03	0.18
9	6770	3.04	0.18
9	6792	3.05	0.18
9	6814	3.06	0.18
9	6836	3.07	0.18
9	6858	3.08	0.18
9	6880	3.09	0.18
9	6902	3.1	0.18
9	6924	3.11	0.18
9	6946	3.12	0.18
9	6968	3.13	0.18
9	6990	3.14	0.18
9	7012	3.15	0.18
9	7034	3.16	0.18
9	7056	3.17	0.18
9	7078	3.18	0.18
9	7100	3.19	0.18
9	7122	3.2	0.18
9	7144	3.21	0.18
9	7166	3.22	0.18
9	7188	3.23	0.18
9	7210	3.24	0.18
9	7232	3.25	0.18
9	7254	3.26	0.18
9	7276	3.27	0.18
9	7298	3.28	0.18
9	7320	3.29	0.18
9	7342	3.3	0.18
9	7364	3.31	0.18
9	7386	3.32	0.18
9	7408	3.33	0.18
9	7430	3.34	0.18
9	7452	3.35	0.18
9	7474	3.36	0.18
9	7496	3.37	0.18
9	7518	3.38	0.18
9	7540	3.39	0.18
9	7562	3.4	0.18
9	7584	3.41	0.18
9	7606	3.42	0.18
9	7628	3.43	0.18
9	7650	3.44	0.18
9	7672	3.45	0.18
9	7694	3.46	0.18
9	7716	3.47	0.18
9	7738	3.48	0.18
9	7760	3.49	0.18
9	7786	3.5	0.18
9	7808	3.51	0.18
9	7830	3.52	0.18
9	7852	3.53	0.18
9	7874	3.54	0.18
9	7896	3.55	0.18
9	7918	3.56	0.18
9	7940	3.57	0.18
9	7962	3.58	0.18
9	7984	3.59	0.18
9	8006	3.6	0.18
9	8028	3.61	0.18
9	8050	3.62	0.18
9	8072	3.63	0.18
9	8094	3.64	0.18
9	8116	3.65	0.18
9	8138	3.66	0.18
9	8160	3.67	0.18
9	8182	3.68	0.18
9	8204	3.69	0.18
9	8226	3.7	0.18
9	8248	3.71	0.18
9	8270	3.72	0.18
9	8292	3.73	0.18
9	8314	3.74	0.18
9	8336	3.75	0.18
9	8358	3.76	0.18
9	8380	3.77	0.18
9	8402	3.78	0.18
9	8424	3.79	0.18
9	8446	3.8	0.18
9	8468	3.81	0.18
9	8490	3.82	0.18
9	8512	3.83	0.18
9	8534	3.84	0.18
9	8556	3.85	0.18
9	8578	3.86	0.18
9	8600	3.87	0.18
9	8622	3.88	0.18
9	8644	3.89	0.18
9	8666	3.9	0.18
9	8688	3.91	0.18
9	8710	3.92	0.18
9	8732	3.93	0.18
9	8754	3.94	0.18
9	8776	3.95	0.18
9	8798	3.96	0.18
9	8820	3.97	0.18
9	8842	3.98	0.18
9	8864	3.99	0.18
9	8890	4	0.18
9	8912	4.01	0.18
9	8934	4.02	0.18
9	8956	4.03	0.18
9	8978	4.04	0.18
9	9000	4.05	0.18
9	9022	4.06	0.18
9	9044	4.07	0.18
9	9066	4.08	0.18
9	9088	4.09	0.18
9	9110	4.1	0.18
9	9132	4.11	0.18
9	9154	4.12	0.18
9	9176	4.13	0.18
9	9198	4.14	0.18
9	9220	4.15	0.18
9	9242	4.16	0.18
9	9264	4.17	0.18
9	9286	4.18	0.18
9	9308	4.19	0.18
9	9330	4.2	0.18
9	9352	4.21	0.18
9	9374	4.22	0.18
9	9396	4.23	0.18
9	9418	4.24	0.18
9	9440	4.25	0.18
9	9462	4.26	0.18
9	9484	4.27	0.18
9	9506	4.28	0.18
9	9528	4.29	0.18
9	9550	4.3	0.18
9	9572	4.31	0.18
9	9594	4.32	0.18
9	9616	4.33	0.18