version 2
run simpleNet-0-20181118-18:35:04-1824
attr configname simpleNet
attr datetime 20181118-18:35:04
attr experiment simpleNet
attr inifile omnetpp.ini
attr iterationvars ""
attr iterationvarsf ""
attr measurement ""
attr network simpleNet
attr processid 1824
attr repetition 0
attr replication #0
attr resultdir results
attr runnumber 0
attr seedset 0

vector 0 simpleNet.node[0] numInQueue:vector ETV
attr interpolationmode none
attr source numInQueue
attr title "total num in queue, vector"
vector 1 simpleNet.node[0] numProcessed:vector ETV
attr interpolationmode none
attr source numProcessed
attr title "num processing events in statRate time, vector"
vector 2 simpleNet.node[1] numInQueue:vector ETV
attr interpolationmode none
attr source numInQueue
attr title "total num in queue, vector"
vector 3 simpleNet.node[1] numProcessed:vector ETV
attr interpolationmode none
attr source numProcessed
attr title "num processing events in statRate time, vector"
vector 4 simpleNet.node[2] numInQueue:vector ETV
attr interpolationmode none
attr source numInQueue
attr title "total num in queue, vector"
vector 5 simpleNet.node[2] numProcessed:vector ETV
attr interpolationmode none
attr source numProcessed
attr title "num processing events in statRate time, vector"
vector 6 simpleNet.node[3] numInQueue:vector ETV
attr interpolationmode none
attr source numInQueue
attr title "total num in queue, vector"
vector 7 simpleNet.node[3] numProcessed:vector ETV
attr interpolationmode none
attr source numProcessed
attr title "num processing events in statRate time, vector"
vector 8 simpleNet.node[4] numInQueue:vector ETV
attr interpolationmode none
attr source numInQueue
attr title "total num in queue, vector"
vector 9 simpleNet.node[4] numProcessed:vector ETV
attr interpolationmode none
attr source numProcessed
attr title "num processing events in statRate time, vector"
vector 10 simpleNet.node[0] completionTime:vector ETV
attr interpolationmode none
attr source completionTime
attr title "completionTime, vector"
vector 11 simpleNet.node[1] completionTime:vector ETV
attr interpolationmode none
attr source completionTime
attr title "completionTime, vector"
vector 12 simpleNet.node[2] completionTime:vector ETV
attr interpolationmode none
attr source completionTime
attr title "completionTime, vector"
vector 13 simpleNet.node[3] completionTime:vector ETV
attr interpolationmode none
attr source completionTime
attr title "completionTime, vector"
vector 14 simpleNet.node[4] completionTime:vector ETV
attr interpolationmode none
attr source completionTime
attr title "completionTime, vector"
0	3	0	0
0	2380	0.5	0
0	4193	1	2
0	5502	1.5	102
0	6757	2	202
0	8012	2.5	302
0	9267	3	402
0	10522	3.5	502
0	11777	4	602
0	13032	4.5	702
0	14287	5	802
0	15542	5.5	902
0	16797	6	1002
0	18052	6.5	1102
0	19307	7	1202
0	20562	7.5	1302
0	21817	8	1402
0	23072	8.5	1502
0	24327	9	1602
0	25582	9.5	1702
0	26829	10	1800
0	26906	10.5	1800
1	3	0	0
1	2380	0.5	170
1	4193	1	118
1	5502	1.5	12
1	6757	2	0
1	8012	2.5	0
1	9267	3	0
1	10522	3.5	0
1	11777	4	0
1	13032	4.5	0
1	14287	5	0
1	15542	5.5	0
1	16797	6	0
1	18052	6.5	0
1	19307	7	0
1	20562	7.5	0
1	21817	8	0
1	23072	8.5	0
1	24327	9	0
1	25582	9.5	0
1	26829	10	0
1	26906	10.5	0
2	5	0	0
2	2381	0.5	1
2	4194	1	101
2	5503	1.5	201
2	6758	2	301
2	8013	2.5	401
2	9268	3	501
2	10523	3.5	601
2	11778	4	701
2	13033	4.5	801
2	14288	5	901
2	15543	5.5	1001
2	16798	6	1101
2	18053	6.5	1201
2	19308	7	1301
2	20563	7.5	1401
2	21818	8	1501
2	23073	8.5	1601
2	24328	9	1701
2	25583	9.5	1801
2	26830	10	1900
2	26907	10.5	1900
3	5	0	0
3	2381	0.5	170
3	4194	1	112
3	5503	1.5	18
3	6758	2	0
3	8013	2.5	0
3	9268	3	0
3	10523	3.5	0
3	11778	4	0
3	13033	4.5	0
3	14288	5	0
3	15543	5.5	0
3	16798	6	0
3	18053	6.5	0
3	19308	7	0
3	20563	7.5	0
3	21818	8	0
3	23073	8.5	0
3	24328	9	0
3	25583	9.5	0
3	26830	10	0
3	26907	10.5	0
4	8	0	0
4	2382	0.5	0
4	4195	1	1
4	5504	1.5	51
4	6759	2	101
4	8014	2.5	151
4	9269	3	201
4	10524	3.5	251
4	11779	4	301
4	13034	4.5	351
4	14289	5	401
4	15544	5.5	451
4	16799	6	501
4	18054	6.5	551
4	19309	7	601
4	20564	7.5	651
4	21819	8	701
4	23074	8.5	751
4	24329	9	801
4	25584	9.5	851
4	26831	10	900
4	26908	10.5	900
5	8	0	0
5	2382	0.5	296
5	4195	1	268
5	5504	1.5	206
5	6759	2	200
5	8014	2.5	200
5	9269	3	200
5	10524	3.5	200
5	11779	4	200
5	13034	4.5	200
5	14289	5	200
5	15544	5.5	200
5	16799	6	200
5	18054	6.5	200
5	19309	7	200
5	20564	7.5	200
5	21819	8	200
5	23074	8.5	200
5	24329	9	200
5	25584	9.5	200
5	26831	10	200
5	26908	10.5	30
6	11	0	0
6	2383	0.5	2
6	4196	1	202
6	5505	1.5	402
6	6760	2	602
6	8015	2.5	802
6	9270	3	1002
6	10525	3.5	1202
6	11780	4	1402
6	13035	4.5	1602
6	14290	5	1802
6	15545	5.5	2002
6	16800	6	2202
6	18055	6.5	2402
6	19310	7	2602
6	20565	7.5	2802
6	21820	8	3002
6	23075	8.5	3202
6	24330	9	3402
6	25585	9.5	3602
6	26832	10	3800
6	26909	10.5	3800
7	11	0	0
7	2383	0.5	258
7	4196	1	42
7	5505	1.5	0
7	6760	2	0
7	8015	2.5	0
7	9270	3	0
7	10525	3.5	0
7	11780	4	0
7	13035	4.5	0
7	14290	5	0
7	15545	5.5	0
7	16800	6	0
7	18055	6.5	0
7	19310	7	0
7	20565	7.5	0
7	21820	8	0
7	23075	8.5	0
7	24330	9	0
7	25585	9.5	0
7	26832	10	0
7	26909	10.5	0
8	13	0	0
8	2384	0.5	0
8	4197	1	0
8	5506	1.5	0
8	6761	2	0
8	8016	2.5	0
8	9271	3	0
8	10526	3.5	0
8	11781	4	0
8	13036	4.5	0
8	14291	5	0
8	15546	5.5	0
8	16801	6	0
8	18056	6.5	0
8	19311	7	0
8	20566	7.5	0
8	21821	8	0
8	23076	8.5	0
8	24331	9	0
8	25586	9.5	0
8	26833	10	0
8	26910	10.5	0
9	13	0	0
9	2384	0.5	211
9	4197	1	250
9	5506	1.5	209
9	6761	2	200
9	8016	2.5	200
9	9271	3	200
9	10526	3.5	200
9	11781	4	200
9	13036	4.5	200
9	14291	5	200
9	15546	5.5	200
9	16801	6	200
9	18056	6.5	200
9	19311	7	200
9	20566	7.5	200
9	21821	8	200
9	23076	8.5	200
9	24331	9	200
9	25586	9.5	200
9	26833	10	200
9	26910	10.5	30
10	139	0.06	60
10	140	0.06	60
10	178	0.07	60
10	179	0.07	60
10	217	0.08	60
10	218	0.08	60
10	256	0.09	60
10	257	0.09	60
10	308	0.1	60
10	309	0.1	60
10	360	0.11	60
10	361	0.11	60
10	412	0.12	60
10	413	0.12	60
10	464	0.13	60
10	465	0.13	60
10	516	0.14	60
10	517	0.14	60
10	568	0.15	60
10	569	0.15	60
10	620	0.16	60
10	621	0.16	60
10	672	0.17	60
10	673	0.17	60
10	724	0.18	60
10	725	0.18	60
10	776	0.19	60
10	777	0.19	60
10	828	0.2	60
10	829	0.2	60
10	880	0.21	60
10	881	0.21	60
10	932	0.22	60
10	933	0.22	60
10	984	0.23	60
10	985	0.23	60
10	1036	0.24	60
10	1037	0.24	60
10	1088	0.25	60
10	1089	0.25	60
10	1140	0.26	60
10	1141	0.26	60
10	1192	0.27	60
10	1193	0.27	60
10	1244	0.28	60
10	1245	0.28	60
10	1296	0.29	60
10	1297	0.29	60
10	1348	0.3	60
10	1349	0.3	60
10	1400	0.31	60
10	1401	0.31	60
10	1452	0.32	60
10	1453	0.32	60
10	1504	0.33	60
10	1505	0.33	60
10	1556	0.34	60
10	1557	0.34	60
10	1608	0.35	60
10	1609	0.35	60
10	1660	0.36	60
10	1661	0.36	60
10	1712	0.37	60
10	1713	0.37	60
10	1764	0.38	60
10	1765	0.38	60
10	1816	0.39	60
10	1817	0.39	60
10	1868	0.4	60
10	1869	0.4	60
10	1920	0.41	60
10	1921	0.41	60
10	1972	0.42	60
10	1973	0.42	60
10	2024	0.43	60
10	2025	0.43	60
10	2076	0.44	60
10	2077	0.44	60
10	2128	0.45	60
10	2129	0.45	60
10	2180	0.46	60
10	2181	0.46	60
10	2232	0.47	60
10	2233	0.47	60
10	2284	0.48	60
10	2285	0.48	60
10	2336	0.49	60
10	2337	0.49	60
10	2393	0.5	60
10	2394	0.5	60
10	2445	0.51	60
10	2446	0.51	60
10	2497	0.52	60
10	2498	0.52	60
10	2546	0.53	60
10	2547	0.53	60
10	2592	0.54	60
10	2593	0.54	60
10	2638	0.55	60
10	2639	0.55	60
10	2684	0.56	60
10	2685	0.56	60
10	2724	0.57	60
10	2725	0.57	60
10	2764	0.58	60
10	2765	0.58	60
10	2804	0.59	60
10	2805	0.59	60
10	2838	0.6	60
10	2839	0.6	60
10	2872	0.61	60
10	2873	0.61	60
10	2906	0.62	60
10	2907	0.62	60
10	2940	0.63	60
10	2941	0.63	60
10	2974	0.64	60
10	2975	0.64	60
10	3008	0.65	60
10	3009	0.65	60
10	3042	0.66	60
10	3043	0.66	60
10	3076	0.67	60
10	3077	0.67	60
10	3110	0.68	60
10	3111	0.68	60
10	3144	0.69	60
10	3145	0.69	60
10	3178	0.7	60
10	3179	0.7	60
10	3212	0.71	60
10	3213	0.71	60
10	3246	0.72	60
10	3247	0.72	60
10	3280	0.73	60
10	3281	0.73	60
10	3314	0.74	60
10	3315	0.74	60
10	3348	0.75	60
10	3349	0.75	60
10	3382	0.76	60
10	3383	0.76	60
10	3416	0.77	60
10	3417	0.77	60
10	3450	0.78	60
10	3451	0.78	60
10	3484	0.79	60
10	3485	0.79	60
10	3518	0.8	60
10	3519	0.8	60
10	3552	0.81	60
10	3553	0.81	60
10	3586	0.82	60
10	3587	0.82	60
10	3620	0.83	60
10	3621	0.83	60
10	3654	0.84	60
10	3655	0.84	60
10	3688	0.85	60
10	3689	0.85	60
10	3722	0.86	60
10	3723	0.86	60
10	3756	0.87	60
10	3757	0.87	60
10	3790	0.88	60
10	3791	0.88	60
10	3824	0.89	60
10	3825	0.89	60
10	3858	0.9	60
10	3859	0.9	60
10	3892	0.91	60
10	3893	0.91	60
10	3926	0.92	60
10	3927	0.92	60
10	3960	0.93	60
10	3961	0.93	60
10	3994	0.94	60
10	3995	0.94	60
10	4028	0.95	60
10	4029	0.95	60
10	4062	0.96	60
10	4063	0.96	60
10	4096	0.97	60
10	4097	0.97	60
10	4130	0.98	60
10	4131	0.98	60
10	4164	0.99	60
10	4165	0.99	60
10	4203	1	60
10	4204	1	60
10	4237	1.01	60
10	4238	1.01	60
10	4271	1.02	60
10	4272	1.02	60
10	4302	1.03	60
10	4303	1.03	60
10	4333	1.04	60
10	4334	1.04	60
10	4364	1.05	60
10	4365	1.05	60
11	141	0.06	60
11	157	0.065	60
11	180	0.07	60
11	196	0.075	60
11	219	0.08	60
11	235	0.085	60
11	258	0.09	60
11	282	0.095	60
11	310	0.1	60
11	334	0.105	60
11	362	0.11	60
11	386	0.115	60
11	414	0.12	60
11	438	0.125	60
11	466	0.13	60
11	490	0.135	60
11	518	0.14	60
11	542	0.145	60
11	570	0.15	60
11	594	0.155	60
11	622	0.16	60
11	646	0.165	60
11	674	0.17	60
11	698	0.175	60
11	726	0.18	60
11	750	0.185	60
11	778	0.19	60
11	802	0.195	60
11	830	0.2	60
11	854	0.205	60
11	882	0.21	60
11	906	0.215	60
11	934	0.22	60
11	958	0.225	60
11	986	0.23	60
11	1010	0.235	60
11	1038	0.24	60
11	1062	0.245	60
11	1090	0.25	60
11	1114	0.255	60
11	1142	0.26	60
11	1166	0.265	60
11	1194	0.27	60
11	1218	0.275	60
11	1246	0.28	60
11	1270	0.285	60
11	1298	0.29	60
11	1322	0.295	60
11	1350	0.3	60
11	1374	0.305	60
11	1402	0.31	60
11	1426	0.315	60
11	1454	0.32	60
11	1478	0.325	60
11	1506	0.33	60
11	1530	0.335	60
11	1558	0.34	60
11	1582	0.345	60
11	1610	0.35	60
11	1634	0.355	60
11	1662	0.36	60
11	1686	0.365	60
11	1714	0.37	60
11	1738	0.375	60
11	1766	0.38	60
11	1790	0.385	60
11	1818	0.39	60
11	1842	0.395	60
11	1870	0.4	60
11	1894	0.405	60
11	1922	0.41	60
11	1946	0.415	60
11	1974	0.42	60
11	1998	0.425	60
11	2026	0.43	60
11	2050	0.435	60
11	2078	0.44	60
11	2102	0.445	60
11	2130	0.45	60
11	2154	0.455	60
11	2182	0.46	60
11	2206	0.465	60
11	2234	0.47	60
11	2258	0.475	60
11	2286	0.48	60
11	2310	0.485	60
11	2338	0.49	60
11	2362	0.495	60
11	2395	0.5	60
11	2419	0.505	60
11	2447	0.51	60
11	2471	0.515	60
11	2499	0.52	60
11	2523	0.525	60
11	2548	0.53	60
11	2569	0.535	60
11	2594	0.54	60
11	2615	0.545	60
11	2640	0.55	60
11	2661	0.555	60
12	142	0.06	60
12	143	0.06	60
12	158	0.065	60
12	181	0.07	60
12	182	0.07	60
12	197	0.075	60
12	220	0.08	60
12	221	0.08	60
12	236	0.085	60
12	259	0.09	60
12	260	0.09	60
12	283	0.095	60
12	311	0.1	60
12	312	0.1	60
12	335	0.105	60
12	363	0.11	60
12	364	0.11	60
12	387	0.115	60
12	415	0.12	60
12	416	0.12	60
12	439	0.125	60
12	467	0.13	60
12	468	0.13	60
12	491	0.135	60
12	519	0.14	60
12	520	0.14	60
12	543	0.145	60
12	571	0.15	60
12	572	0.15	60
12	595	0.155	60
12	623	0.16	60
12	624	0.16	60
12	647	0.165	60
12	675	0.17	60
12	676	0.17	60
12	699	0.175	60
12	727	0.18	60
12	728	0.18	60
12	751	0.185	60
12	779	0.19	60
12	780	0.19	60
12	803	0.195	60
12	831	0.2	60
12	832	0.2	60
12	855	0.205	60
12	883	0.21	60
12	884	0.21	60
12	907	0.215	60
12	935	0.22	60
12	936	0.22	60
12	959	0.225	60
12	987	0.23	60
12	988	0.23	60
12	1011	0.235	60
12	1039	0.24	60
12	1040	0.24	60
12	1063	0.245	60
12	1091	0.25	60
12	1092	0.25	60
12	1115	0.255	60
12	1143	0.26	60
12	1144	0.26	60
12	1167	0.265	60
12	1195	0.27	60
12	1196	0.27	60
12	1219	0.275	60
12	1247	0.28	60
12	1248	0.28	60
12	1271	0.285	60
12	1299	0.29	60
12	1300	0.29	60
12	1323	0.295	60
12	1351	0.3	60
12	1352	0.3	60
12	1375	0.305	60
12	1403	0.31	60
12	1404	0.31	60
12	1427	0.315	60
12	1455	0.32	60
12	1456	0.32	60
12	1479	0.325	60
12	1507	0.33	60
12	1508	0.33	60
12	1531	0.335	60
12	1559	0.34	60
12	1560	0.34	60
12	1583	0.345	60
12	1611	0.35	60
12	1612	0.35	60
12	1635	0.355	60
12	1663	0.36	60
12	1664	0.36	60
12	1687	0.365	60
12	1715	0.37	60
12	1716	0.37	60
12	1739	0.375	60
12	1767	0.38	60
12	1768	0.38	60
12	1791	0.385	60
12	1819	0.39	60
12	1820	0.39	60
12	1843	0.395	60
12	1871	0.4	60
12	1872	0.4	60
12	1895	0.405	60
12	1923	0.41	60
12	1924	0.41	60
12	1947	0.415	60
12	1975	0.42	60
12	1976	0.42	60
12	1999	0.425	60
12	2027	0.43	60
12	2028	0.43	60
12	2051	0.435	60
12	2079	0.44	60
12	2080	0.44	60
12	2103	0.445	60
12	2131	0.45	60
12	2132	0.45	60
12	2155	0.455	60
12	2183	0.46	60
12	2184	0.46	60
12	2207	0.465	60
12	2235	0.47	60
12	2236	0.47	60
12	2259	0.475	60
12	2287	0.48	60
12	2288	0.48	60
12	2311	0.485	60
12	2339	0.49	60
12	2340	0.49	60
12	2363	0.495	60
12	2396	0.5	60
12	2397	0.5	60
12	2420	0.505	60
12	2448	0.51	60
12	2449	0.51	60
12	2472	0.515	60
12	2500	0.52	60
12	2501	0.52	60
12	2524	0.525	60
12	2549	0.53	60
12	2550	0.53	60
12	2570	0.535	60
12	2595	0.54	60
12	2596	0.54	60
12	2616	0.545	60
12	2641	0.55	60
12	2642	0.55	60
12	2662	0.555	60
12	2686	0.56	60
12	2687	0.56	60
12	2704	0.565	60
12	2726	0.57	60
12	2727	0.57	60
12	2744	0.575	60
12	2766	0.58	60
12	2767	0.58	60
12	2784	0.585	60
12	2806	0.59	60
12	2807	0.59	60
12	2821	0.595	60
12	2840	0.6	60
12	2841	0.6	60
12	2855	0.605	60
12	2874	0.61	60
12	2875	0.61	60
12	2889	0.615	60
12	2908	0.62	60
12	2909	0.62	60
12	2923	0.625	60
12	2942	0.63	60
12	2943	0.63	60
12	2957	0.635	60
12	2976	0.64	60
12	2977	0.64	60
12	2991	0.645	60
12	3010	0.65	60
12	3011	0.65	60
12	3025	0.655	60
12	3044	0.66	60
12	3045	0.66	60
12	3059	0.665	60
12	3078	0.67	60
12	3079	0.67	60
12	3093	0.675	60
12	3112	0.68	60
12	3113	0.68	60
12	3127	0.685	60
12	3146	0.69	60
12	3147	0.69	60
12	3161	0.695	60
12	3180	0.7	60
12	3181	0.7	60
12	3195	0.705	60
12	3214	0.71	60
12	3215	0.71	60
12	3229	0.715	60
12	3248	0.72	60
12	3249	0.72	60
12	3263	0.725	60
12	3282	0.73	60
12	3283	0.73	60
12	3297	0.735	60
12	3316	0.74	60
12	3317	0.74	60
12	3331	0.745	60
12	3350	0.75	60
12	3351	0.75	60
12	3365	0.755	60
12	3384	0.76	60
12	3385	0.76	60
12	3399	0.765	60
12	3418	0.77	60
12	3419	0.77	60
12	3433	0.775	60
12	3452	0.78	60
12	3453	0.78	60
12	3467	0.785	60
12	3486	0.79	60
12	3487	0.79	60
12	3501	0.795	60
12	3520	0.8	60
12	3521	0.8	60
12	3535	0.805	60
12	3554	0.81	60
12	3555	0.81	60
12	3569	0.815	60
12	3588	0.82	60
12	3589	0.82	60
12	3603	0.825	60
12	3622	0.83	60
12	3623	0.83	60
12	3637	0.835	60
12	3656	0.84	60
12	3657	0.84	60
12	3671	0.845	60
12	3690	0.85	60
12	3691	0.85	60
12	3705	0.855	60
12	3724	0.86	60
12	3725	0.86	60
12	3739	0.865	60
12	3758	0.87	60
12	3759	0.87	60
12	3773	0.875	60
12	3792	0.88	60
12	3793	0.88	60
12	3807	0.885	60
12	3826	0.89	60
12	3827	0.89	60
12	3841	0.895	60
12	3860	0.9	60
12	3861	0.9	60
12	3875	0.905	60
12	3894	0.91	60
12	3895	0.91	60
12	3909	0.915	60
12	3928	0.92	60
12	3929	0.92	60
12	3943	0.925	60
12	3962	0.93	60
12	3963	0.93	60
12	3977	0.935	60
12	3996	0.94	60
12	3997	0.94	60
12	4011	0.945	60
12	4030	0.95	60
12	4031	0.95	60
12	4045	0.955	60
12	4064	0.96	60
12	4065	0.96	60
12	4079	0.965	60
12	4098	0.97	60
12	4099	0.97	60
12	4113	0.975	60
12	4132	0.98	60
12	4133	0.98	60
12	4147	0.985	60
12	4166	0.99	60
12	4167	0.99	60
12	4181	0.995	60
12	4205	1	60
12	4206	1	60
12	4220	1.005	60
12	4239	1.01	60
12	4240	1.01	60
12	4254	1.015	60
12	4273	1.02	60
12	4274	1.02	60
12	4288	1.025	60
12	4304	1.03	60
12	4305	1.03	60
12	4319	1.035	60
12	4335	1.04	60
12	4336	1.04	60
12	4350	1.045	60
12	4366	1.05	60
12	4367	1.05	60
12	4381	1.055	60
12	4395	1.06	60
12	4409	1.065	60
12	4423	1.07	60
12	4437	1.075	60
12	4451	1.08	60
12	4465	1.085	60
12	4479	1.09	60
12	4490	1.095	60
12	4504	1.1	60
12	4515	1.105	60
12	4529	1.11	60
12	4540	1.115	60
12	4554	1.12	60
12	4565	1.125	60
12	4579	1.13	60
12	4590	1.135	60
12	4604	1.14	60
12	4615	1.145	60
12	4629	1.15	60
12	4640	1.155	60
12	4654	1.16	60
12	4665	1.165	60
12	4679	1.17	60
12	4690	1.175	60
12	4704	1.18	60
12	4715	1.185	60
12	4729	1.19	60
12	4740	1.195	60
12	4754	1.2	60
12	4765	1.205	60
12	4779	1.21	60
12	4790	1.215	60
12	4804	1.22	60
12	4815	1.225	60
12	4829	1.23	60
12	4840	1.235	60
12	4854	1.24	60
12	4865	1.245	60
12	4879	1.25	60
12	4890	1.255	60
12	4904	1.26	60
12	4915	1.265	60
12	4929	1.27	60
12	4940	1.275	60
12	4954	1.28	60
12	4965	1.285	60
12	4979	1.29	60
12	4990	1.295	60
12	5004	1.3	60
12	5015	1.305	60
12	5029	1.31	60
12	5040	1.315	60
12	5054	1.32	60
12	5065	1.325	60
12	5079	1.33	60
12	5090	1.335	60
12	5104	1.34	60
12	5115	1.345	60
12	5129	1.35	60
12	5140	1.355	60
12	5154	1.36	60
12	5165	1.365	60
12	5179	1.37	60
12	5190	1.375	60
12	5204	1.38	60
12	5215	1.385	60
12	5229	1.39	60
12	5240	1.395	60
12	5254	1.4	60
12	5265	1.405	60
12	5279	1.41	60
12	5290	1.415	60
12	5304	1.42	60
12	5315	1.425	60
12	5329	1.43	60
12	5340	1.435	60
12	5354	1.44	60
12	5365	1.445	60
12	5379	1.45	60
12	5390	1.455	60
12	5404	1.46	60
12	5415	1.465	60
12	5429	1.47	60
12	5440	1.475	60
12	5454	1.48	60
12	5465	1.485	60
12	5479	1.49	60
12	5490	1.495	60
12	5509	1.5	60
12	5520	1.505	60
12	5534	1.51	60
12	5545	1.515	60
12	5559	1.52	60
12	5570	1.525	60
12	5584	1.53	60
12	5595	1.535	60
12	5609	1.54	60
12	5620	1.545	60
12	5634	1.55	60
12	5645	1.555	60
12	5659	1.56	60
12	5670	1.565	60
12	5684	1.57	60
12	5695	1.575	60
12	5709	1.58	60
12	5720	1.585	60
12	5734	1.59	60
12	5745	1.595	60
12	5759	1.6	60
12	5770	1.605	60
12	5784	1.61	60
12	5795	1.615	60
12	5809	1.62	60
12	5820	1.625	60
12	5834	1.63	60
12	5845	1.635	60
12	5859	1.64	60
12	5870	1.645	60
12	5884	1.65	60
12	5895	1.655	60
12	5909	1.66	60
12	5920	1.665	60
12	5934	1.67	60
12	5945	1.675	60
12	5959	1.68	60
12	5970	1.685	60
12	5984	1.69	60
12	5995	1.695	60
12	6009	1.7	60
12	6020	1.705	60
12	6034	1.71	60
12	6045	1.715	60
12	6059	1.72	60
12	6070	1.725	60
12	6084	1.73	60
12	6095	1.735	60
12	6109	1.74	60
12	6120	1.745	60
12	6134	1.75	60
12	6145	1.755	60
12	6159	1.76	60
12	6170	1.765	60
12	6184	1.77	60
12	6195	1.775	60
12	6209	1.78	60
12	6220	1.785	60
12	6234	1.79	60
12	6245	1.795	60
12	6259	1.8	60
12	6270	1.805	60
12	6284	1.81	60
12	6295	1.815	60
12	6309	1.82	60
12	6320	1.825	60
12	6334	1.83	60
12	6345	1.835	60
12	6359	1.84	60
12	6370	1.845	60
12	6384	1.85	60
12	6395	1.855	60
12	6409	1.86	60
12	6420	1.865	60
12	6434	1.87	60
12	6445	1.875	60
12	6459	1.88	60
12	6470	1.885	60
12	6484	1.89	60
12	6495	1.895	60
12	6509	1.9	60
12	6520	1.905	60
12	6534	1.91	60
12	6545	1.915	60
12	6559	1.92	60
12	6570	1.925	60
12	6584	1.93	60
12	6595	1.935	60
12	6609	1.94	60
12	6620	1.945	60
12	6634	1.95	60
12	6645	1.955	60
12	6659	1.96	60
12	6670	1.965	60
12	6684	1.97	60
12	6695	1.975	60
12	6709	1.98	60
12	6720	1.985	60
12	6734	1.99	60
12	6745	1.995	60
12	6764	2	60
12	6775	2.005	60
12	6789	2.01	60
12	6800	2.015	60
12	6814	2.02	60
12	6825	2.025	60
12	6839	2.03	60
12	6850	2.035	60
12	6864	2.04	60
12	6875	2.045	60
12	6889	2.05	60
12	6900	2.055	60
12	6914	2.06	60
12	6925	2.065	60
12	6939	2.07	60
12	6950	2.075	60
12	6964	2.08	60
12	6975	2.085	60
12	6989	2.09	60
12	7000	2.095	60
12	7014	2.1	60
12	7025	2.105	60
12	7039	2.11	60
12	7050	2.115	60
12	7064	2.12	60
12	7075	2.125	60
12	7089	2.13	60
12	7100	2.135	60
12	7114	2.14	60
12	7125	2.145	60
12	7139	2.15	60
12	7150	2.155	60
12	7164	2.16	60
12	7175	2.165	60
12	7189	2.17	60
12	7200	2.175	60
12	7214	2.18	60
12	7225	2.185	60
12	7239	2.19	60
12	7250	2.195	60
12	7264	2.2	60
12	7275	2.205	60
12	7289	2.21	60
12	7300	2.215	60
12	7314	2.22	60
12	7325	2.225	60
12	7339	2.23	60
12	7350	2.235	60
12	7364	2.24	60
12	7375	2.245	60
12	7389	2.25	60
12	7400	2.255	60
12	7414	2.26	60
12	7425	2.265	60
12	7439	2.27	60
12	7450	2.275	60
12	7464	2.28	60
12	7475	2.285	60
12	7489	2.29	60
12	7500	2.295	60
12	7514	2.3	60
12	7525	2.305	60
12	7539	2.31	60
12	7550	2.315	60
12	7564	2.32	60
12	7575	2.325	60
12	7589	2.33	60
12	7600	2.335	60
12	7614	2.34	60
12	7625	2.345	60
12	7639	2.35	60
12	7650	2.355	60
12	7664	2.36	60
12	7675	2.365	60
12	7689	2.37	60
12	7700	2.375	60
12	7714	2.38	60
12	7725	2.385	60
12	7739	2.39	60
12	7750	2.395	60
12	7764	2.4	60
12	7775	2.405	60
12	7789	2.41	60
12	7800	2.415	60
12	7814	2.42	60
12	7825	2.425	60
12	7839	2.43	60
12	7850	2.435	60
12	7864	2.44	60
12	7875	2.445	60
12	7889	2.45	60
12	7900	2.455	60
12	7914	2.46	60
12	7925	2.465	60
12	7939	2.47	60
12	7950	2.475	60
12	7964	2.48	60
12	7975	2.485	60
12	7989	2.49	60
12	8000	2.495	60
12	8019	2.5	60
12	8030	2.505	60
12	8044	2.51	60
12	8055	2.515	60
12	8069	2.52	60
12	8080	2.525	60
12	8094	2.53	60
12	8105	2.535	60
12	8119	2.54	60
12	8130	2.545	60
12	8144	2.55	60
12	8155	2.555	60
12	8169	2.56	60
12	8180	2.565	60
12	8194	2.57	60
12	8205	2.575	60
12	8219	2.58	60
12	8230	2.585	60
12	8244	2.59	60
12	8255	2.595	60
12	8269	2.6	60
12	8280	2.605	60
12	8294	2.61	60
12	8305	2.615	60
12	8319	2.62	60
12	8330	2.625	60
12	8344	2.63	60
12	8355	2.635	60
12	8369	2.64	60
12	8380	2.645	60
12	8394	2.65	60
12	8405	2.655	60
12	8419	2.66	60
12	8430	2.665	60
12	8444	2.67	60
12	8455	2.675	60
12	8469	2.68	60
12	8480	2.685	60
12	8494	2.69	60
12	8505	2.695	60
12	8519	2.7	60
12	8530	2.705	60
12	8544	2.71	60
12	8555	2.715	60
12	8569	2.72	60
12	8580	2.725	60
12	8594	2.73	60
12	8605	2.735	60
12	8619	2.74	60
12	8630	2.745	60
12	8644	2.75	60
12	8655	2.755	60
12	8669	2.76	60
12	8680	2.765	60
12	8694	2.77	60
12	8705	2.775	60
12	8719	2.78	60
12	8730	2.785	60
12	8744	2.79	60
12	8755	2.795	60
12	8769	2.8	60
12	8780	2.805	60
12	8794	2.81	60
12	8805	2.815	60
12	8819	2.82	60
12	8830	2.825	60
12	8844	2.83	60
12	8855	2.835	60
12	8869	2.84	60
12	8880	2.845	60
12	8894	2.85	60
12	8905	2.855	60
12	8919	2.86	60
12	8930	2.865	60
12	8944	2.87	60
12	8955	2.875	60
12	8969	2.88	60
12	8980	2.885	60
12	8994	2.89	60
12	9005	2.895	60
12	9019	2.9	60
12	9030	2.905	60
12	9044	2.91	60
12	9055	2.915	60
12	9069	2.92	60
12	9080	2.925	60
12	9094	2.93	60
12	9105	2.935	60
12	9119	2.94	60
12	9130	2.945	60
12	9144	2.95	60
12	9155	2.955	60
12	9169	2.96	60
12	9180	2.965	60
12	9194	2.97	60
12	9205	2.975	60
12	9219	2.98	60
12	9230	2.985	60
12	9244	2.99	60
12	9255	2.995	60
12	9274	3	60
12	9285	3.005	60
12	9299	3.01	60
12	9310	3.015	60
12	9324	3.02	60
12	9335	3.025	60
12	9349	3.03	60
12	9360	3.035	60
12	9374	3.04	60
12	9385	3.045	60
12	9399	3.05	60
12	9410	3.055	60
12	9424	3.06	60
12	9435	3.065	60
12	9449	3.07	60
12	9460	3.075	60
12	9474	3.08	60
12	9485	3.085	60
12	9499	3.09	60
12	9510	3.095	60
12	9524	3.1	60
12	9535	3.105	60
12	9549	3.11	60
12	9560	3.115	60
12	9574	3.12	60
12	9585	3.125	60
12	9599	3.13	60
12	9610	3.135	60
12	9624	3.14	60
12	9635	3.145	60
12	9649	3.15	60
12	9660	3.155	60
12	9674	3.16	60
12	9685	3.165	60
12	9699	3.17	60
12	9710	3.175	60
12	9724	3.18	60
12	9735	3.185	60
12	9749	3.19	60
12	9760	3.195	60
12	9774	3.2	60
12	9785	3.205	60
12	9799	3.21	60
12	9810	3.215	60
12	9824	3.22	60
12	9835	3.225	60
12	9849	3.23	60
12	9860	3.235	60
12	9874	3.24	60
12	9885	3.245	60
12	9899	3.25	60
12	9910	3.255	60
12	9924	3.26	60
12	9935	3.265	60
12	9949	3.27	60
12	9960	3.275	60
12	9974	3.28	60
12	9985	3.285	60
12	9999	3.29	60
12	10010	3.295	60
12	10024	3.3	60
12	10035	3.305	60
12	10049	3.31	60
12	10060	3.315	60
12	10074	3.32	60
12	10085	3.325	60
12	10099	3.33	60
12	10110	3.335	60
12	10124	3.34	60
12	10135	3.345	60
12	10149	3.35	60
12	10160	3.355	60
12	10174	3.36	60
12	10185	3.365	60
12	10199	3.37	60
12	10210	3.375	60
12	10224	3.38	60
12	10235	3.385	60
12	10249	3.39	60
12	10260	3.395	60
12	10274	3.4	60
12	10285	3.405	60
12	10299	3.41	60
12	10310	3.415	60
12	10324	3.42	60
12	10335	3.425	60
12	10349	3.43	60
12	10360	3.435	60
12	10374	3.44	60
12	10385	3.445	60
12	10399	3.45	60
12	10410	3.455	60
12	10424	3.46	60
12	10435	3.465	60
12	10449	3.47	60
12	10460	3.475	60
12	10474	3.48	60
12	10485	3.485	60
12	10499	3.49	60
12	10510	3.495	60
12	10529	3.5	60
12	10540	3.505	60
12	10554	3.51	60
12	10565	3.515	60
12	10579	3.52	60
12	10590	3.525	60
12	10604	3.53	60
12	10615	3.535	60
12	10629	3.54	60
12	10640	3.545	60
12	10654	3.55	60
12	10665	3.555	60
12	10679	3.56	60
12	10690	3.565	60
12	10704	3.57	60
12	10715	3.575	60
12	10729	3.58	60
12	10740	3.585	60
12	10754	3.59	60
12	10765	3.595	60
12	10779	3.6	60
12	10790	3.605	60
12	10804	3.61	60
12	10815	3.615	60
12	10829	3.62	60
12	10840	3.625	60
12	10854	3.63	60
12	10865	3.635	60
12	10879	3.64	60
12	10890	3.645	60
12	10904	3.65	60
12	10915	3.655	60
12	10929	3.66	60
12	10940	3.665	60
12	10954	3.67	60
12	10965	3.675	60
12	10979	3.68	60
12	10990	3.685	60
12	11004	3.69	60
12	11015	3.695	60
12	11029	3.7	60
12	11040	3.705	60
12	11054	3.71	60
12	11065	3.715	60
12	11079	3.72	60
12	11090	3.725	60
12	11104	3.73	60
12	11115	3.735	60
12	11129	3.74	60
12	11140	3.745	60
12	11154	3.75	60
12	11165	3.755	60
12	11179	3.76	60
12	11190	3.765	60
12	11204	3.77	60
12	11215	3.775	60
12	11229	3.78	60
12	11240	3.785	60
12	11254	3.79	60
12	11265	3.795	60
12	11279	3.8	60
12	11290	3.805	60
12	11304	3.81	60
12	11315	3.815	60
12	11329	3.82	60
12	11340	3.825	60
12	11354	3.83	60
12	11365	3.835	60
12	11379	3.84	60
12	11390	3.845	60
12	11404	3.85	60
12	11415	3.855	60
12	11429	3.86	60
12	11440	3.865	60
12	11454	3.87	60
12	11465	3.875	60
12	11479	3.88	60
12	11490	3.885	60
12	11504	3.89	60
12	11515	3.895	60
12	11529	3.9	60
12	11540	3.905	60
12	11554	3.91	60
12	11565	3.915	60
12	11579	3.92	60
12	11590	3.925	60
12	11604	3.93	60
12	11615	3.935	60
12	11629	3.94	60
12	11640	3.945	60
12	11654	3.95	60
12	11665	3.955	60
12	11679	3.96	60
12	11690	3.965	60
12	11704	3.97	60
12	11715	3.975	60
12	11729	3.98	60
12	11740	3.985	60
12	11754	3.99	60
12	11765	3.995	60
12	11784	4	60
12	11795	4.005	60
12	11809	4.01	60
12	11820	4.015	60
12	11834	4.02	60
12	11845	4.025	60
12	11859	4.03	60
12	11870	4.035	60
12	11884	4.04	60
12	11895	4.045	60
12	11909	4.05	60
12	11920	4.055	60
12	11934	4.06	60
12	11945	4.065	60
12	11959	4.07	60
12	11970	4.075	60
12	11984	4.08	60
12	11995	4.085	60
12	12009	4.09	60
12	12020	4.095	60
12	12034	4.1	60
12	12045	4.105	60
12	12059	4.11	60
12	12070	4.115	60
12	12084	4.12	60
12	12095	4.125	60
12	12109	4.13	60
12	12120	4.135	60
12	12134	4.14	60
12	12145	4.145	60
12	12159	4.15	60
12	12170	4.155	60
12	12184	4.16	60
12	12195	4.165	60
12	12209	4.17	60
12	12220	4.175	60
12	12234	4.18	60
12	12245	4.185	60
12	12259	4.19	60
12	12270	4.195	60
12	12284	4.2	60
12	12295	4.205	60
12	12309	4.21	60
12	12320	4.215	60
12	12334	4.22	60
12	12345	4.225	60
12	12359	4.23	60
12	12370	4.235	60
12	12384	4.24	60
12	12395	4.245	60
12	12409	4.25	60
12	12420	4.255	60
12	12434	4.26	60
12	12445	4.265	60
12	12459	4.27	60
12	12470	4.275	60
12	12484	4.28	60
12	12495	4.285	60
12	12509	4.29	60
12	12520	4.295	60
12	12534	4.3	60
12	12545	4.305	60
12	12559	4.31	60
12	12570	4.315	60
12	12584	4.32	60
12	12595	4.325	60
12	12609	4.33	60
12	12620	4.335	60
12	12634	4.34	60
12	12645	4.345	60
12	12659	4.35	60
12	12670	4.355	60
12	12684	4.36	60
12	12695	4.365	60
12	12709	4.37	60
12	12720	4.375	60
12	12734	4.38	60
12	12745	4.385	60
12	12759	4.39	60
12	12770	4.395	60
12	12784	4.4	60
12	12795	4.405	60
12	12809	4.41	60
12	12820	4.415	60
12	12834	4.42	60
12	12845	4.425	60
12	12859	4.43	60
12	12870	4.435	60
12	12884	4.44	60
12	12895	4.445	60
12	12909	4.45	60
12	12920	4.455	60
12	12934	4.46	60
12	12945	4.465	60
12	12959	4.47	60
12	12970	4.475	60
12	12984	4.48	60
12	12995	4.485	60
12	13009	4.49	60
12	13020	4.495	60
12	13039	4.5	60
12	13050	4.505	60
12	13064	4.51	60
12	13075	4.515	60
12	13089	4.52	60
12	13100	4.525	60
12	13114	4.53	60
12	13125	4.535	60
12	13139	4.54	60
12	13150	4.545	60
12	13164	4.55	60
12	13175	4.555	60
12	13189	4.56	60
12	13200	4.565	60
12	13214	4.57	60
12	13225	4.575	60
12	13239	4.58	60
12	13250	4.585	60
12	13264	4.59	60
12	13275	4.595	60
12	13289	4.6	60
12	13300	4.605	60
12	13314	4.61	60
12	13325	4.615	60
12	13339	4.62	60
12	13350	4.625	60
12	13364	4.63	60
12	13375	4.635	60
12	13389	4.64	60
12	13400	4.645	60
12	13414	4.65	60
12	13425	4.655	60
12	13439	4.66	60
12	13450	4.665	60
12	13464	4.67	60
12	13475	4.675	60
12	13489	4.68	60
12	13500	4.685	60
12	13514	4.69	60
12	13525	4.695	60
12	13539	4.7	60
12	13550	4.705	60
12	13564	4.71	60
12	13575	4.715	60
12	13589	4.72	60
12	13600	4.725	60
12	13614	4.73	60
12	13625	4.735	60
12	13639	4.74	60
12	13650	4.745	60
12	13664	4.75	60
12	13675	4.755	60
12	13689	4.76	60
12	13700	4.765	60
12	13714	4.77	60
12	13725	4.775	60
12	13739	4.78	60
12	13750	4.785	60
12	13764	4.79	60
12	13775	4.795	60
12	13789	4.8	60
12	13800	4.805	60
12	13814	4.81	60
12	13825	4.815	60
12	13839	4.82	60
12	13850	4.825	60
12	13864	4.83	60
12	13875	4.835	60
12	13889	4.84	60
12	13900	4.845	60
12	13914	4.85	60
12	13925	4.855	60
12	13939	4.86	60
12	13950	4.865	60
12	13964	4.87	60
12	13975	4.875	60
12	13989	4.88	60
12	14000	4.885	60
12	14014	4.89	60
12	14025	4.895	60
12	14039	4.9	60
12	14050	4.905	60
12	14064	4.91	60
12	14075	4.915	60
12	14089	4.92	60
12	14100	4.925	60
12	14114	4.93	60
12	14125	4.935	60
12	14139	4.94	60
12	14150	4.945	60
12	14164	4.95	60
12	14175	4.955	60
12	14189	4.96	60
12	14200	4.965	60
12	14214	4.97	60
12	14225	4.975	60
12	14239	4.98	60
12	14250	4.985	60
12	14264	4.99	60
12	14275	4.995	60
12	14294	5	60
12	14305	5.005	60
12	14319	5.01	60
12	14330	5.015	60
12	14344	5.02	60
12	14355	5.025	60
12	14369	5.03	60
12	14380	5.035	60
12	14394	5.04	60
12	14405	5.045	60
12	14419	5.05	60
12	14430	5.055	60
12	14444	5.06	60
12	14455	5.065	60
12	14469	5.07	60
12	14480	5.075	60
12	14494	5.08	60
12	14505	5.085	60
12	14519	5.09	60
12	14530	5.095	60
12	14544	5.1	60
12	14555	5.105	60
12	14569	5.11	60
12	14580	5.115	60
12	14594	5.12	60
12	14605	5.125	60
12	14619	5.13	60
12	14630	5.135	60
12	14644	5.14	60
12	14655	5.145	60
12	14669	5.15	60
12	14680	5.155	60
12	14694	5.16	60
12	14705	5.165	60
12	14719	5.17	60
12	14730	5.175	60
12	14744	5.18	60
12	14755	5.185	60
12	14769	5.19	60
12	14780	5.195	60
12	14794	5.2	60
12	14805	5.205	60
12	14819	5.21	60
12	14830	5.215	60
12	14844	5.22	60
12	14855	5.225	60
12	14869	5.23	60
12	14880	5.235	60
12	14894	5.24	60
12	14905	5.245	60
12	14919	5.25	60
12	14930	5.255	60
12	14944	5.26	60
12	14955	5.265	60
12	14969	5.27	60
12	14980	5.275	60
12	14994	5.28	60
12	15005	5.285	60
12	15019	5.29	60
12	15030	5.295	60
12	15044	5.3	60
12	15055	5.305	60
12	15069	5.31	60
12	15080	5.315	60
12	15094	5.32	60
12	15105	5.325	60
12	15119	5.33	60
12	15130	5.335	60
12	15144	5.34	60
12	15155	5.345	60
12	15169	5.35	60
12	15180	5.355	60
12	15194	5.36	60
12	15205	5.365	60
12	15219	5.37	60
12	15230	5.375	60
12	15244	5.38	60
12	15255	5.385	60
12	15269	5.39	60
12	15280	5.395	60
12	15294	5.4	60
12	15305	5.405	60
12	15319	5.41	60