version 2
run simpleNet-0-20181113-23:48:31-79992
attr configname simpleNet
attr datetime 20181113-23:48:31
attr experiment simpleNet
attr inifile omnetpp.ini
attr iterationvars ""
attr iterationvarsf ""
attr measurement ""
attr network simpleNet
attr processid 79992
attr repetition 0
attr replication #0
attr resultdir results
attr runnumber 0
attr seedset 0

vector 0 simpleNet.node[0] numInQueue:vector ETV
attr interpolationmode none
attr source numInQueue
attr title "total num in queue, vector"
vector 1 simpleNet.node[0] numProcessed:vector ETV
attr interpolationmode none
attr source numProcessed
attr title "num processing events in statRate, vector"
vector 2 simpleNet.node[1] numInQueue:vector ETV
attr interpolationmode none
attr source numInQueue
attr title "total num in queue, vector"
vector 3 simpleNet.node[1] numProcessed:vector ETV
attr interpolationmode none
attr source numProcessed
attr title "num processing events in statRate, vector"
vector 4 simpleNet.node[2] numInQueue:vector ETV
attr interpolationmode none
attr source numInQueue
attr title "total num in queue, vector"
vector 5 simpleNet.node[2] numProcessed:vector ETV
attr interpolationmode none
attr source numProcessed
attr title "num processing events in statRate, vector"
vector 6 simpleNet.node[3] numInQueue:vector ETV
attr interpolationmode none
attr source numInQueue
attr title "total num in queue, vector"
vector 7 simpleNet.node[3] numProcessed:vector ETV
attr interpolationmode none
attr source numProcessed
attr title "num processing events in statRate, vector"
vector 8 simpleNet.node[0] completionTime:vector ETV
attr interpolationmode none
attr source completionTime
attr title "completionTime, vector"
vector 9 simpleNet.node[3] completionTime:vector ETV
attr interpolationmode none
attr source completionTime
attr title "completionTime, vector"
0	2	0	0
0	217	0.2	0
0	631	0.4	0
0	1053	0.6	0
0	1455	0.8	0
0	1889	1	0
0	2303	1.2	0
0	2700	1.4	0
0	3194	1.6	0
0	3609	1.8	0
0	4013	2	0
0	4490	2.2	0
0	4976	2.4	0
0	5432	2.6	0
0	5877	2.8	0
0	6311	3	0
0	6771	3.2	0
0	7195	3.4	0
0	7605	3.6	0
0	8052	3.8	0
0	8519	4	0
0	8980	4.2	0
0	9397	4.4	0
0	9800	4.6	0
0	10157	4.8	0
0	10484	5	0
0	10810	5.2	0
0	11125	5.4	0
0	11520	5.6	0
0	11942	5.8	0
0	12371	6	0
0	12757	6.2	0
0	13113	6.4	0
0	13452	6.6	0
0	13872	6.8	0
0	14311	7	0
0	14816	7.2	0
0	15227	7.4	0
0	15686	7.6	0
0	16061	7.8	0
0	16414	8	0
0	16837	8.2	0
0	17223	8.4	0
0	17665	8.6	0
0	18083	8.8	0
0	18550	9	0
0	18887	9.2	0
0	19250	9.4	0
0	19572	9.6	0
0	19918	9.8	0
0	20368	10	0
0	20869	10.2	0
0	21286	10.4	0
0	21688	10.6	0
0	22028	10.8	0
0	22361	11	0
0	22793	11.2	0
0	23287	11.4	0
1	2	0	0
1	217	0.2	11
1	631	0.4	42
1	1053	0.6	39
1	1455	0.8	41
1	1889	1	43
1	2303	1.2	41
1	2700	1.4	39
1	3194	1.6	48
1	3609	1.8	43
1	4013	2	41
1	4490	2.2	42
1	4976	2.4	52
1	5432	2.6	46
1	5877	2.8	43
1	6311	3	43
1	6771	3.2	48
1	7195	3.4	40
1	7605	3.6	39
1	8052	3.8	45
1	8519	4	44
1	8980	4.2	52
1	9397	4.4	39
1	9800	4.6	43
1	10157	4.8	35
1	10484	5	31
1	10810	5.2	33
1	11125	5.4	30
1	11520	5.6	36
1	11942	5.8	42
1	12371	6	45
1	12757	6.2	39
1	13113	6.4	34
1	13452	6.6	36
1	13872	6.8	36
1	14311	7	43
1	14816	7.2	57
1	15227	7.4	33
1	15686	7.6	48
1	16061	7.8	38
1	16414	8	36
1	16837	8.2	44
1	17223	8.4	35
1	17665	8.6	43
1	18083	8.8	45
1	18550	9	46
1	18887	9.2	33
1	19250	9.4	41
1	19572	9.6	27
1	19918	9.8	32
1	20368	10	41
1	20869	10.2	50
1	21286	10.4	44
1	21688	10.6	37
1	22028	10.8	37
1	22361	11	29
1	22793	11.2	39
1	23287	11.4	50
2	3	0	0
2	218	0.2	0
2	632	0.4	0
2	1054	0.6	0
2	1456	0.8	0
2	1890	1	0
2	2304	1.2	0
2	2701	1.4	0
2	3195	1.6	0
2	3610	1.8	0
2	4014	2	0
2	4491	2.2	0
2	4977	2.4	0
2	5433	2.6	0
2	5878	2.8	0
2	6312	3	0
2	6772	3.2	0
2	7196	3.4	0
2	7606	3.6	0
2	8053	3.8	0
2	8520	4	0
2	8981	4.2	0
2	9398	4.4	0
2	9801	4.6	0
2	10158	4.8	0
2	10485	5	0
2	10811	5.2	0
2	11126	5.4	0
2	11521	5.6	0
2	11943	5.8	0
2	12372	6	0
2	12758	6.2	0
2	13114	6.4	0
2	13453	6.6	0
2	13873	6.8	0
2	14312	7	0
2	14817	7.2	0
2	15228	7.4	0
2	15687	7.6	0
2	16062	7.8	0
2	16415	8	0
2	16838	8.2	0
2	17224	8.4	0
2	17666	8.6	0
2	18084	8.8	0
2	18551	9	0
2	18888	9.2	0
2	19251	9.4	0
2	19573	9.6	5
2	19919	9.8	2
2	20369	10	9
2	20870	10.2	5
2	21287	10.4	10
2	21689	10.6	21
2	22029	10.8	17
2	22362	11	22
2	22794	11.2	32
2	23288	11.4	24
3	3	0	0
3	218	0.2	18
3	632	0.4	91
3	1054	0.6	78
3	1456	0.8	78
3	1890	1	90
3	2304	1.2	80
3	2701	1.4	83
3	3195	1.6	91
3	3610	1.8	85
3	4014	2	81
3	4491	2.2	92
3	4977	2.4	105
3	5433	2.6	80
3	5878	2.8	90
3	6312	3	85
3	6772	3.2	98
3	7196	3.4	79
3	7606	3.6	78
3	8053	3.8	96
3	8520	4	84
3	8981	4.2	98
3	9398	4.4	80
3	9801	4.6	84
3	10158	4.8	69
3	10485	5	69
3	10811	5.2	64
3	11126	5.4	63
3	11521	5.6	72
3	11943	5.8	86
3	12372	6	85
3	12758	6.2	77
3	13114	6.4	72
3	13453	6.6	66
3	13873	6.8	79
3	14312	7	85
3	14817	7.2	103
3	15228	7.4	79
3	15687	7.6	95
3	16062	7.8	78
3	16415	8	66
3	16838	8.2	85
3	17224	8.4	75
3	17666	8.6	85
3	18084	8.8	82
3	18551	9	93
3	18888	9.2	73
3	19251	9.4	72
3	19573	9.6	60
3	19919	9.8	66
3	20369	10	81
3	20870	10.2	102
3	21287	10.4	88
3	21689	10.6	80
3	22029	10.8	64
3	22362	11	63
3	22794	11.2	80
3	23288	11.4	95
4	4	0	0
4	219	0.2	0
4	633	0.4	0
4	1055	0.6	0
4	1457	0.8	0
4	1891	1	0
4	2305	1.2	0
4	2702	1.4	0
4	3196	1.6	0
4	3611	1.8	0
4	4015	2	0
4	4492	2.2	0
4	4978	2.4	0
4	5434	2.6	0
4	5879	2.8	0
4	6313	3	0
4	6773	3.2	0
4	7197	3.4	0
4	7607	3.6	0
4	8054	3.8	0
4	8521	4	0
4	8982	4.2	0
4	9399	4.4	0
4	9802	4.6	0
4	10159	4.8	0
4	10486	5	0
4	10812	5.2	0
4	11127	5.4	0
4	11522	5.6	0
4	11944	5.8	0
4	12373	6	0
4	12759	6.2	0
4	13115	6.4	0
4	13454	6.6	0
4	13874	6.8	0
4	14313	7	0
4	14818	7.2	0
4	15229	7.4	0
4	15688	7.6	0
4	16063	7.8	0
4	16416	8	0
4	16839	8.2	0
4	17225	8.4	0
4	17667	8.6	0
4	18085	8.8	0
4	18552	9	0
4	18889	9.2	0
4	19252	9.4	0
4	19574	9.6	0
4	19920	9.8	0
4	20370	10	0
4	20871	10.2	0
4	21288	10.4	0
4	21690	10.6	0
4	22030	10.8	0
4	22363	11	0
4	22795	11.2	0
4	23289	11.4	0
5	4	0	0
5	219	0.2	22
5	633	0.4	85
5	1055	0.6	76
5	1457	0.8	85
5	1891	1	89
5	2305	1.2	78
5	2702	1.4	74
5	3196	1.6	102
5	3611	1.8	83
5	4015	2	78
5	4492	2.2	83
5	4978	2.4	106
5	5434	2.6	94
5	5879	2.8	85
5	6313	3	91
5	6773	3.2	89
5	7197	3.4	91
5	7607	3.6	74
5	8054	3.8	90
5	8521	4	88
5	8982	4.2	97
5	9399	4.4	86
5	9802	4.6	79
5	10159	4.8	68
5	10486	5	69
5	10812	5.2	65
5	11127	5.4	56
5	11522	5.6	74
5	11944	5.8	87
5	12373	6	87
5	12759	6.2	77
5	13115	6.4	69
5	13454	6.6	70
5	13874	6.8	77
5	14313	7	87
5	14818	7.2	102
5	15229	7.4	78
5	15688	7.6	94
5	16063	7.8	79
5	16416	8	69
5	16839	8.2	84
5	17225	8.4	74
5	17667	8.6	88
5	18085	8.8	83
5	18552	9	95
5	18889	9.2	66
5	19252	9.4	77
5	19574	9.6	55
5	19920	9.8	72
5	20370	10	77
5	20871	10.2	107
5	21288	10.4	82
5	21690	10.6	75
5	22030	10.8	75
5	22363	11	58
5	22795	11.2	75
5	23289	11.4	103
6	6	0	0
6	220	0.2	0
6	634	0.4	0
6	1056	0.6	0
6	1458	0.8	0
6	1892	1	0
6	2306	1.2	0
6	2703	1.4	0
6	3197	1.6	0
6	3612	1.8	0
6	4016	2	0
6	4493	2.2	0
6	4979	2.4	0
6	5435	2.6	0
6	5880	2.8	0
6	6314	3	0
6	6774	3.2	0
6	7198	3.4	0
6	7608	3.6	0
6	8055	3.8	0
6	8522	4	0
6	8983	4.2	0
6	9400	4.4	0
6	9803	4.6	0
6	10160	4.8	0
6	10487	5	0
6	10813	5.2	0
6	11128	5.4	0
6	11523	5.6	0
6	11945	5.8	0
6	12374	6	0
6	12760	6.2	0
6	13116	6.4	0
6	13455	6.6	0
6	13875	6.8	0
6	14314	7	0
6	14819	7.2	0
6	15230	7.4	0
6	15689	7.6	0
6	16064	7.8	0
6	16417	8	0
6	16840	8.2	0
6	17226	8.4	0
6	17668	8.6	0
6	18086	8.8	0
6	18553	9	0
6	18890	9.2	0
6	19253	9.4	0
6	19575	9.6	0
6	19921	9.8	0
6	20371	10	0
6	20872	10.2	0
6	21289	10.4	0
6	21691	10.6	0
6	22031	10.8	0
6	22364	11	0
6	22796	11.2	0
6	23290	11.4	0
7	6	0	0
7	220	0.2	10
7	634	0.4	46
7	1056	0.6	37
7	1458	0.8	40
7	1892	1	44
7	2306	1.2	40
7	2703	1.4	41
7	3197	1.6	48
7	3612	1.8	41
7	4016	2	40
7	4493	2.2	43
7	4979	2.4	53
7	5435	2.6	45
7	5880	2.8	41
7	6314	3	44
7	6774	3.2	49
7	7198	3.4	44
7	7608	3.6	36
7	8055	3.8	47
7	8522	4	44
7	8983	4.2	47
7	9400	4.4	42
7	9803	4.6	40
7	10160	4.8	34
7	10487	5	35
7	10813	5.2	34
7	11128	5.4	28
7	11523	5.6	37
7	11945	5.8	42
7	12374	6	45
7	12760	6.2	36
7	13116	6.4	35
7	13455	6.6	34
7	13875	6.8	41
7	14314	7	43
7	14819	7.2	53
7	15230	7.4	38
7	15689	7.6	49
7	16064	7.8	38
7	16417	8	33
7	16840	8.2	42
7	17226	8.4	36
7	17668	8.6	45
7	18086	8.8	38
7	18553	9	49
7	18890	9.2	36
7	19253	9.4	34
7	19575	9.6	32
7	19921	9.8	33
7	20371	10	39
7	20872	10.2	55
7	21289	10.4	38
7	21691	10.6	41
7	22031	10.8	37
7	22364	11	28
7	22796	11.2	38
7	23290	11.4	50
8	169	0.18	180
8	180	0.183350994493	180
8	191	0.190418662275	180
8	198	0.194446598991	180
8	244	0.212443714975	180
8	265	0.224583527063	180
8	279	0.228283093767	180
8	286	0.231729302192	180
8	335	0.25617508412	180
8	338	0.256559809704	180
8	346	0.25960574065	180
8	368	0.269112900124	180
8	389	0.278160323113	180
8	394	0.281118156038	180
8	410	0.289642507887	180
8	433	0.299219159274	180
8	441	0.300313552996	180
8	443	0.301523959351	180
8	463	0.313872322365	180
8	494	0.329087074042	180
8	529	0.347403790132	180
8	548	0.357041153369	180
8	555	0.359574773309	180
8	587	0.378395776773	180
8	624	0.39695910733	180
8	644	0.406562612667	180
8	660	0.412616588772	180
8	663	0.413627932948	180
8	667	0.415313409049	180
8	671	0.417017945534	180
8	741	0.458311703176	180
8	764	0.470602166619	180
8	790	0.487720433814	180
8	793	0.488090614418	180
8	861	0.518290947426	180
8	866	0.520876978908	180
8	872	0.522322537637	180
8	884	0.527647665507	180
8	913	0.537780997511	180
8	922	0.543345203139	180
8	946	0.55387877803	180
8	957	0.557994937479	180
8	968	0.560315528713	180
8	1010	0.581560621581	180
8	1021	0.58587611285	180
8	1025	0.588691049648	180
8	1103	0.623329825612	180
8	1106	0.624295436676	180
8	1109	0.624571343412	180
8	1142	0.64179328774	180
8	1158	0.6495785921	180
8	1197	0.667778562161	180
8	1211	0.672981210943	180
8	1218	0.674721609676	180
8	1249	0.691301542231	180
8	1256	0.694539677049	180
8	1270	0.699753081226	180
8	1272	0.700111957357	180
8	1286	0.710765486943	180
8	1308	0.720277828757	180
8	1327	0.728707241519	180
8	1329	0.72880399752	180
8	1340	0.734450433831	180
8	1375	0.755429946119	180
8	1407	0.773223060535	180
8	1437	0.790244989853	180
8	1447	0.794554411764	180
8	1475	0.811094308151	180
8	1525	0.834241708363	180
8	1530	0.838580485011	180
8	1539	0.843911928297	180
8	1562	0.852041687657	180
8	1651	0.88849631637	180
8	1655	0.89168162998	180
8	1664	0.893554552761	180
8	1674	0.902599938855	180
8	1700	0.911340612331	180
8	1703	0.913446402485	180
8	1705	0.913654781504	180
8	1718	0.91677931598	180
8	1752	0.933951865314	180
8	1761	0.936745542017	180
8	1774	0.943938000613	180
8	1787	0.948301390016	180
8	1800	0.954101678966	180
8	1821	0.966245940408	180
8	1845	0.977858973608	180
8	1938	1.025873225664	180
8	1942	1.027428263458	180
8	1944	1.027536171331	180
8	1965	1.034539835305	180
8	1969	1.036291113901	180
8	1986	1.046750388757	180
8	1989	1.048594299232	180
8	1997	1.050995206113	180
8	1999	1.052254568038	180
8	2001	1.052736941631	180
8	2015	1.05916434458	180
8	2031	1.065348331317	180
8	2038	1.068724667235	180
8	2048	1.072641401149	180
8	2124	1.112808178397	180
8	2135	1.118137095672	180
8	2143	1.12145384523	180
8	2183	1.143786192988	180
8	2211	1.157061429021	180
8	2229	1.167134141593	180
8	2256	1.18	180
8	2265	1.18225586753	180
8	2279	1.18964094872	180
8	2281	1.18965107039	180
8	2333	1.21109466584	180
8	2336	1.2122001926	180
8	2343	1.21352583098	180
8	2355	1.22057801754	180
8	2363	1.22526316761	180
8	2389	1.23390848395	180
8	2396	1.2363298513	180
8	2412	1.24444027951	180
8	2441	1.26037483474	180
8	2443	1.26043916018	180
8	2453	1.26495070508	180
8	2459	1.26821666186	180
8	2514	1.3014230712	180
8	2523	1.30711579895	180
8	2530	1.3094397612	180
8	2540	1.31328492031	180
8	2556	1.32455802952	180
8	2565	1.33264107284	180
8	2578	1.33965223022	180
8	2607	1.35266026021	180
8	2652	1.37720280959	180
8	2673	1.38620031916	180
8	2710	1.40147245798	180
8	2744	1.41632033437	180
8	2766	1.42809426643	180
8	2796	1.43922678974	180
8	2859	1.46862033734	180
8	2903	1.48887262573	180
8	2984	1.51986855017	180
8	2988	1.52026266748	180
8	2999	1.52621396699	180
8	3037	1.53884674862	180
8	3041	1.54038917913	180
8	3043	1.54055965472	180
8	3045	1.54087710724	180
8	3070	1.55139772661	180
8	3090	1.56040840064	180
8	3108	1.56559805602	180
8	3137	1.57607587778	180
8	3144	1.58108244996	180
8	3176	1.59204552231	180
8	3224	1.61571952038	180
8	3226	1.61602903123	180
8	3236	1.6189108673	180
8	3243	1.62135506003	180
8	3248	1.6221747773	180
8	3269	1.6321359965	180
8	3275	1.63485280576	180
8	3300	1.64889605944	180
8	3316	1.65458352738	180
8	3331	1.65987358502	180
8	3335	1.66186244077	180
8	3385	1.68509333077	180
8	3390	1.68775279637	180
8	3399	1.69148887388	180
8	3413	1.69824904194	180
8	3415	1.69898903088	180
8	3419	1.69946547052	180
8	3489	1.73244583341	180
8	3500	1.74321247586	180
8	3504	1.743571883	180
8	3517	1.74918018137	180
8	3532	1.75804684146	180
8	3582	1.78476445684	180
8	3587	1.78644375331	180
8	3626	1.80671807839	180
8	3632	1.80948425336	180
8	3647	1.81631411447	180
8	3661	1.82053426552	180
8	3688	1.83556791738	180
8	3702	1.84279677866	180
8	3721	1.84956196652	180
8	3749	1.86360974053	180
8	3751	1.86438626654	180
8	3780	1.87923340039	180
8	3787	1.88173596657	180
8	3804	1.8909378757	180
8	3835	1.90808818761	180
8	3875	1.92819574201	180
8	3877	1.92833394584	180
8	3882	1.93275995573	180
8	3897	1.94256616901	180
8	3938	1.96312767432	180
8	3947	1.96654513428	180
8	3996	1.99268485136	180
8	4018	2.00018544046	180
8	4046	2.01117172534	180
8	4061	2.01785466961	180
8	4102	2.03967068663	180
8	4104	2.04016640704	180
8	4118	2.04592712428	180
8	4173	2.07123887364	180
8	4186	2.07646732912	180
8	4250	2.10292474966	180
8	4254	2.10501284199	180
8	4259	2.10651596198	180
8	4264	2.1085738815	180
8	4321	2.1309364518	180
8	4394	2.15914373088	180
8	4407	2.16732465944	180
8	4441	2.18	180
8	4446	2.18076776019	180
8	4507	2.20576901953	180
8	4517	2.20898233361	180
8	4534	2.21174414093	180
8	4571	2.22965287566	180
8	4666	2.26355348496	180
8	4694	2.27368042127	180
8	4697	2.27477491496	180
8	4701	2.27583812392	180
8	4778	2.30677226593	180
8	4785	2.31013853903	180
8	4792	2.31371917114	180
8	4803	2.31751963536	180
8	4817	2.32231572557	180
8	4856	2.34284382135	180
8	4873	2.34841683467	180
8	4889	2.35760994954	180
8	4893	2.35999072974	180
8	4911	2.36876659071	180
8	4985	2.40305788907	180
8	5011	2.41393104664	180
8	5014	2.41465753073	180
8	5026	2.42041251106	180
8	5078	2.44224635262	180
8	5142	2.4710995453	180
8	5160	2.48113861836	180
8	5204	2.50388255834	180
8	5211	2.50723741595	180
8	5223	2.5128657963	180
8	5231	2.51753128591	180
8	5247	2.52541069416	180
8	5270	2.53399987954	180
8	5303	2.55018186119	180
8	5312	2.55423472045	180
8	5322	2.55632294405	180
8	5348	2.56629001314	180
8	5357	2.56891312258	180
8	5365	2.5713716779	180
8	5369	2.57322861656	180
8	5375	2.57508122251	180
8	5383	2.58105831235	180
8	5392	2.5842468188	180
8	5408	2.58949410917	180
8	5420	2.59471404475	180
8	5437	2.60069886075	180
8	5439	2.60111501093	180
8	5515	2.63992972583	180
8	5517	2.64000137077	180
8	5533	2.64820060298	180
8	5600	2.68136150705	180
8	5604	2.68240761755	180
8	5613	2.68413012643	180
8	5629	2.69343821843	180
8	5637	2.69887250538	180
8	5643	2.70272024338	180
8	5666	2.70969155028	180
8	5669	2.71109368779	180
8	5677	2.71289499174	180
8	5681	2.71374365586	180
8	5695	2.71751450576	180
8	5708	2.72375769583	180
8	5732	2.73545569304	180
8	5776	2.74954446765	180
8	5785	2.75494455877	180
8	5820	2.77140544266	180
8	5886	2.80183654566	180
8	5958	2.83655165598	180
8	5968	2.84029392091	180
8	5990	2.85376312903	180
8	6003	2.85770169402	180
8	6010	2.8612858191	180
8	6040	2.872080261	180
8	6048	2.8753987214	180
8	6060	2.88367033395	180
8	6070	2.88619424709	180
8	6083	2.89207051846	180
8	6096	2.8963495384	180
8	6098	2.89686553776	180
8	6124	2.90803325113	180
8	6140	2.91604729794	180
8	6155	2.92289912743	180
8	6167	2.92802723116	180
8	6169	2.92928056306	180
8	6171	2.92957832081	180
8	6184	2.93398137231	180
8	6232	2.96015131648	180
8	6250	2.96883151824	180
8	6275	2.9829918736	180
8	6278	2.98539064461	180
8	6328	3.00613443517	180
8	6385	3.03446746346	180
8	6398	3.04030333857	180
8	6405	3.04189163287	180
8	6408	3.0422958748	180
8	6412	3.04551545658	180
8	6439	3.05790643015	180
8	6459	3.06651821715	180
8	6480	3.07557516307	180
8	6491	3.07960442985	180
8	6511	3.08846761828	180
8	6526	3.09468943216	180
8	6533	3.09807157459	180
8	6537	3.10089900984	180
8	6579	3.11750307143	180
8	6584	3.1194524615	180
8	6602	3.12660851931	180
8	6608	3.1310118504	180
8	6638	3.14270653046	180
8	6640	3.14465527427	180
8	6648	3.14735399115	180
8	6663	3.15278722088	180
8	6678	3.15937885267	180
8	6686	3.16494253721	180
8	6689	3.16618013898	180
8	6694	3.16687395819	180
8	6726	3.18	180
8	6818	3.22364213342	180
8	6826	3.22701682613	180
8	6832	3.22888147297	180
8	6879	3.25164975812	180
8	6888	3.25624311827	180
8	6899	3.2607718269	180
8	6901	3.26141551624	180
8	6926	3.26993138004	180
8	6953	3.2868766128	180
8	6981	3.29929535322	180
8	7035	3.32551937132	180
8	7045	3.3293594317	180
8	7064	3.34113578113	180
8	7066	3.34175932935	180
8	7102	3.35538931938	180
8	7116	3.36513775011	180
8	7133	3.37406907607	180
8	7149	3.37898285078	180
8	7158	3.38283169446	180
8	7161	3.3837408191	180
8	7163	3.38428984562	180
8	7183	3.39530052229	180
8	7185	3.39543138664	180
8	7213	3.40740545316	180
8	7226	3.41228967903	180
8	7236	3.41461937559	180
8	7239	3.41551486295	180
8	7243	3.41710943423	180
8	7253	3.42674577978	180
8	7270	3.43531547491	180
8	7277	3.43764925445	180
8	7279	3.43780454923	180
8	7292	3.44353374912	180
8	7345	3.4719829917	180
8	7387	3.49587628768	180
8	7391	3.49676576793	180
8	7430	3.51712671016	180
8	7437	3.52052992169	180
8	7463	3.53194251276	180
8	7467	3.53457504756	180
8	7497	3.54751491943	180
8	7512	3.55410236413	180
8	7544	3.57295407822	180
8	7550	3.57457220328	180
8	7564	3.57946566387	180
8	7595	3.59489360319	180
8	7637	3.6096201173	180
8	7661	3.62328589123	180
8	7674	3.62777504428	180
8	7682	3.63169427181	180
8	7695	3.63533568011	180
8	7698	3.63597731028	180
8	7712	3.64249465155	180
8	7715	3.64310356046	180
8	7739	3.6543565036	180
8	7780	3.67059905698	180
8	7789	3.67336708221	180
8	7793	3.67643849336	180
8	7797	3.6782765437	180
8	7855	3.70250893181	180
8	7885	3.71842860112	180
8	7888	3.71942856387	180
8	7905	3.72414712541	180
8	7915	3.73040319156	180
8	7950	3.74988849393	180
8	7983	3.76872350159	180
8	7989	3.76964888139	180
8	8008	3.77899509829	180
8	8016	3.7821722759	180
8	8065	3.80379227674	180
8	8069	3.80431515573	180
8	8073	3.8061383055	180
8	8099	3.81598574366	180
8	8104	3.81726584469	180
8	8114	3.82311719585	180
8	8133	3.83218677666	180
8	8145	3.83651613042	180
8	8160	3.84358443631	180
8	8165	3.84373989109	180
8	8197	3.86193394492	180
8	8224	3.8722047733	180
8	8232	3.87373945975	180
8	8262	3.89209501636	180
8	8382	3.95125523885	180
8	8389	3.95323293682	180
8	8411	3.95960208833	180
8	8432	3.96735961251	180
8	8434	3.96741040732	180
8	8465	3.98260284346	180
8	8470	3.98349482979	180
8	8475	3.98415188468	180
8	8496	3.99312381488	180
8	8498	3.99316143225	180
8	8516	3.99979880987	180
8	8528	4.00144163053	180
8	8533	4.00381918039	180
8	8536	4.00418693389	180
8	8575	4.01862864548	180
8	8577	4.01985024646	180
8	8631	4.04324477887	180
8	8644	4.04670405134	180
8	8653	4.04990489946	180
8	8655	4.05156978922	180
8	8689	4.06880545849	180
8	8708	4.07585031217	180
8	8757	4.09999665136	180
8	8760	4.10086089027	180
8	8794	4.11458025902	180
8	8797	4.11733334282	180
8	8807	4.12047734432	180
8	8816	4.12431824501	180
8	8819	4.12461234369	180
8	8821	4.12543333469	180
8	8839	4.13283288852	180
8	8843	4.13392317899	180
8	8937	4.18	180
8	8944	4.18151700676	180
8	8950	4.18401475362	180
8	8971	4.19382783397	180
8	8989	4.2031937422	180
8	9079	4.25199505808	180
8	9086	4.25552970991	180
8	9137	4.28049825118	180
8	9141	4.28302028267	180
8	9149	4.28559452536	180
8	9171	4.29750732395	180
8	9184	4.30224743018	180
8	9192	4.30556687195	180
8	9234	4.32634372206	180
8	9249	4.33156725572	180
8	9255	4.33322173261	180
8	9271	4.33899088221	180
8	9280	4.34463368751	180
8	9309	4.35837314102	180
8	9336	4.36978166466	180
8	9349	4.37702731368	180
8	9357	4.38207076102	180
8	9360	4.3828828845	180
8	9380	4.39239354699	180
8	9388	4.3967767607	180
8	9406	4.4033043255	180
8	9433	4.41750631235	180
8	9459	4.42979570562	180
8	9486	4.44467425987	180
8	9497	4.44887658564	180
8	9503	4.45186811579	180
8	9506	4.45332450303	180
8	9534	4.46811311005	180
8	9554	4.47766301691	180
8	9590	4.49771924517	180
8	9618	4.50829996426	180
8	9649	4.52662535907	180
8	9662	4.53218033274	180
8	9693	4.54732791484	180
8	9721	4.56082022573	180
8	9731	4.5653428923	180
8	9748	4.57309204074	180
8	9756	4.57826347283	180
8	9770	4.58684677514	180
8	9781	4.59103051978	180
8	9796	4.59697298507	180
8	9848	4.6262227277	180
8	9874	4.64158377762	180
8	9904	4.65821332307	180
8	9920	4.66933523489	180
8	9930	4.67630570979	180
8	9938	4.68043017634	180
8	9957	4.69088398437	180
8	9986	4.70920814393	180
8	10005	4.71843090432	180
8	10016	4.72462635747	180
8	10021	4.72562754955	180
8	10043	4.73778167343	180
8	10058	4.74574596565	180
8	10080	4.75634282249	180
8	10087	4.76019576237	180
8	10130	4.7849528761	180
8	10147	4.79217487531	180
8	10176	4.80689719204	180
8	10212	4.83133782466	180
8	10261	4.86336733737	180
8	10271	4.87242219785	180
8	10273	4.87338258232	180
8	10280	4.87488009347	180
8	10302	4.8849229259	180
8	10328	4.90158348058	180
8	10332	4.9034945629	180
8	10335	4.90431976126	180
8	10344	4.90785035219	180
8	10351	4.91049558814	180
8	10354	4.91071832603	180
8	10361	4.9157406171	180
8	10368	4.92072587276	180
8	10370	4.92089130072	180
8	10426	4.95869602484	180
8	10475	4.99611667019	180
8	10490	5.00050197765	180
8	10536	5.03095731424	180
8	10546	5.04127073007	180
8	10556	5.05001233069	180
8	10579	5.06035337924	180
8	10601	5.07660265602	180
8	10636	5.09331957876	180
8	10640	5.09577026924	180
8	10656	5.10867736493	180
8	10685	5.12080862026	180
8	10702	5.13310680036	180
8	10724	5.1460370254	180
8	10727	5.14695003407	180
8	10748	5.15670944846	180
8	10759	5.16887229272	180
8	10777	5.17743908682	180
8	10783	5.18	180
8	10790	5.18319373325	180
8	10794	5.1859206282	180
8	10806	5.19679918031	180
8	10830	5.20847938825	180
8	10850	5.2176269766	180
8	10879	5.24141781635	180
8	10884	5.24353557928	180
8	10887	5.24558467927	180
8	10907	5.26093783684	180
8	10940	5.28181580665	180
8	10951	5.28955172736	180
8	10959	5.29536621409	180
8	10961	5.29628883223	180
8	11041	5.35271660554	180
8	11058	5.35971523766	180
8	11172	5.4233141987	180
8	11177	5.42804370765	180
8	11190	5.434006256	180
8	11210	5.44658232208	180
8	11222	5.45027407481	180
8	11248	5.46500337313	180
8	11312	5.49671625016	180
8	11321	5.50332145206	180
8	11350	5.51936462263	180
8	11352	5.51936583475	180
8	11356	5.52076528024	180
8	11365	5.52269183266	180
8	11385	5.53575045999	180
8	11399	5.54286159317	180
8	11430	5.55635602972	180
8	11507	5.5936777049	180
8	11547	5.61139706663	180
8	11577	5.62684236699	180
8	11583	5.62851541907	180
8	11598	5.63466017901	180
8	11607	5.63865417792	180
8	11614	5.64202136269	180
8	11616	5.64204103407	180
8	11661	5.66499305824	180
8	11669	5.66758013748	180
8	11674	5.67048179917	180
8	11727	5.69608005347	180
8	11729	5.69680961174	180
8	11751	5.70497924684	180
8	11764	5.71278034217	180
8	11791	5.7243523159	180
8	11806	5.73250124657	180
8	11815	5.73442939653	180
8	11817	5.73446506488	180
8	11858	5.75457437672	180
8	11874	5.76329727777	180
8	11954	5.8052955562	180
8	11977	5.81556714448	180
8	12008	5.83379024717	180
8	12018	5.83924091157	180
8	12031	5.84496733478	180
8	12081	5.86784899935	180
8	12096	5.87522919805	180
8	12110	5.87845923332	180
8	12113	5.88097716543	180
8	12117	5.88381205031	180
8	12127	5.88805213053	180
8	12158	5.90464231771	180
8	12165	5.90628833974	180
8	12201	5.92428004709	180
8	12208	5.92724616439	180
8	12222	5.93406049233	180
8	12259	5.94974638157	180
8	12261	5.9499096144	180
8	12268	5.95296379625	180
8	12274	5.95567594201	180
8	12290	5.96381206585	180
8	12310	5.97107394738	180
8	12313	5.97410957794	180
8	12322	5.97840936612	180
8	12330	5.9813086135	180
8	12380	6.00523799226	180
8	12415	6.02559078364	180
8	12424	6.02792031682	180
8	12435	6.03528345616	180
8	12450	6.04387206798	180
8	12493	6.06866422326	180
8	12533	6.08737976414	180
8	12539	6.08809240965	180
8	12557	6.10109546245	180
8	12575	6.10847986739	180
8	12592	6.11666069146	180
8	12615	6.13095703065	180
8	12625	6.1331524983	180
8	12646	6.14283492824	180
8	12650	6.14404144489	180
8	12656	6.14719726886	180
8	12680	6.16158481291	180
8	12693	6.16702224414	180
8	12709	6.17620169871	180
8	12715	6.18	180
8	12735	6.19140968882	180
8	12752	6.19852795803	180
8	12810	6.22701500452	180
8	12817	6.22898436497	180
8	12824	6.23253944839	180
8	12826	6.23266797521	180
8	12873	6.25883525874	180
8	12878	6.26145890114	180
8	12893	6.27057037295	180
8	12903	6.27616732587	180
8	12913	6.28251018027	180
8	12923	6.28639787838	180
8	12961	6.3108860903	180
8	12971	6.31576711854	180
8	12977	6.31945270839	180
8	13049	6.36222489808	180
8	13054	6.36681518388	180
8	13059	6.36845151832	180
8	13061	6.3698720474	180
8	13070	6.37359141271	180
8	13079	6.38034775769	180
8	13109	6.39702107062	180
8	13146	6.41367606019	180
8	13156	6.41918221365	180
8	13197	6.4436696715	180
8	13254	6.47605175852	180
8	13284	6.49284466736	180
8	13313	6.51078177303	180
8	13338	6.53061777597	180
8	13380	6.55320721756	180
8	13401	6.56659214108	180
8	13422	6.58227564256	180
8	13431	6.58476752607	180
8	13522	6.63844867324	180
8	13537	6.64787374954	180
8	13564	6.66016882084	180
8	13573	6.66272000922	180
8	13654	6.70238989182	180
8	13661	6.70326460161	180
8	13680	6.71369763997	180
8	13683	6.71513761507	180
8	13714	6.7243144233	180
8	13733	6.73364458891	180
8	13736	6.73564600778	180
8	13745	6.741889183	180
8	13759	6.7472278215	180
8	13827	6.78032877357	180
8	13845	6.78412349192	180
8	13853	6.78930246795	180
8	13882	6.80189992747	180
8	13891	6.80572819849	180
8	13893	6.80630135637	180
8	13905	6.81126199463	180
8	13924	6.81852383288	180
8	13929	6.81937588032	180
8	13945	6.82783480432	180
8	14003	6.85244796818	180
8	14010	6.85644970974	180
8	14037	6.87166285967	180
8	14042	6.87317856268	180
8	14056	6.88035981766	180
8	14062	6.88152929543	180
8	14080	6.89086080814	180
8	14083	6.89255748633	180
8	14091	6.89804622967	180
8	14111	6.90866399657	180
8	14181	6.93958983811	180
8	14206	6.95080362276	180
8	14219	6.96173302006	180
8	14242	6.96930343622	180
8	14287	6.99315853621	180
8	14297	6.99643485951	180
8	14326	7.00618534982	180
8	14349	7.01720276782	180
8	14377	7.0269076396	180
8	14384	7.02838595204	180
8	14410	7.04036228914	180
8	14426	7.04817241082	180
8	14439	7.05116003891	180
8	14485	7.07212210369	180
8	14488	7.0736152953	180
8	14541	7.09017573468	180
8	14551	7.09561188568	180
8	14560	7.09877748813	180
8	14568	7.10366111272	180
8	14589	7.11055774562	180
8	14596	7.11200468489	180
8	14604	7.11479631649	180
8	14606	7.11484204372	180
8	14619	7.11914144356	180
8	14624	7.12027901829	180
8	14637	7.12825347666	180
8	14732	7.16866727602	180
8	14739	7.16991560594	180
8	14751	7.1735065301	180
8	14765	7.18	180
8	14794	7.19513277876	180
8	14800	7.1962594037	180
8	14803	7.19792332766	180
8	14811	7.1995917783	180
8	14851	7.21764974026	180
8	14866	7.22594951714	180
8	14891	7.23494316321	180
8	14917	7.25446880062	180
8	14959	7.27360760284	180
8	14984	7.28493316055	180
8	14987	7.28732614313	180
8	14993	7.28910982945	180
8	15000	7.29154516032	180
8	15010	7.29796435288	180
8	15044	7.31425813364	180
8	15057	7.31945290603	180
8	15130	7.3600807868	180
8	15145	7.3648636804	180
8	15164	7.37134720261	180
8	15171	7.37466634062	180
8	15247	7.40834307644	180
8	15254	7.41189595897	180
8	15279	7.42286729785	180
8	15288	7.42483982601	180
8	15300	7.42829048367	180
8	15322	7.43832926899	180
8	15357	7.45288314459	180
8	15360	7.45336387086	180
8	15362	7.45426611251	180
8	15369	7.45594369291	180
8	15382	7.46064196574	180
8	15384	7.46185169817	180
8	15396	7.46664752865	180
8	15410	7.47413926145	180
8	15424	7.48055016395	180
8	15445	7.48930916086	180
8	15457	7.49329431476	180
8	15471	7.50310124733	180
8	15479	7.5059616955	180
8	15513	7.5197112685	180
8	15515	7.52021880251	180
8	15585	7.55329006481	180
8	15605	7.56317144644	180
8	15651	7.58371565234	180
8	15654	7.5866128253	180
8	15663	7.59108876222	180
8	15684	7.59914936926	180
8	15699	7.60534413438	180
8	15707	7.60946934722	180
8	15712	7.61327963882	180
8	15724	7.62079570754	180
8	15737	7.62469354918	180
8	15801	7.65852775325	180
8	15806	7.66074887424	180
8	15847	7.68271230168	180
8	15872	7.69347457325	180
8	15877	7.69502356053	180
8	15893	7.70221889605	180
8	15905	7.71109931423	180
8	15918	7.71758351933	180
8	15960	7.74107551481	180
8	16014	7.77420026203	180
8	16016	7.77492287053	180
8	16029	7.77946721153	180
8	16058	7.79911118086	180
8	16067	7.80351799733	180
8	16077	7.80644230068	180
8	16082	7.80922668155	180
8	16101	7.81804796614	180
8	16105	7.8200161891	180
8	16130	7.83531424474	180
8	16158	7.84929530053	180
8	16197	7.8743725631	180
8	16201	7.87544974445	180
8	16236	7.89699844452	180
8	16249	7.90597457384	180
8	16254	7.91129051056	180
8	16311	7.94781999075	180
8	16321	7.95360531477	180
8	16338	7.96399356041	180
8	16344	7.96547684846	180
8	16347	7.96737972837	180
8	16356	7.97222191129	180
8	16371	7.98055824706	180
8	16422	8.00179582214	180
8	16443	8.01440448459	180
8	16458	8.02000078805	180
8	16468	8.02425165013	180
8	16493	8.0360187058	180
8	16512	8.04680223088	180
8	16514	8.04820138314	180
8	16544	8.06367855286	180
8	16548	8.06555455645	180
8	16599	8.09029459872	180
8	16614	8.09929807717	180
8	16647	8.11519784824	180
8	16650	8.11617332076	180
8	16684	8.13199072646	180
8	16703	8.14118987947	180
8	16734	8.15287443322	180
8	16745	8.15878686913	180
8	16753	8.1621925861	180
8	16772	8.17060866493	180
8	16785	8.1776725984	180
8	16790	8.18	180
8	16797	8.18117571232	180
8	16825	8.19519846523	180
8	16845	8.20199565197	180
8	16875	8.21655536516	180
8	16921	8.24325814321	180
8	16933	8.24800304456	180
8	16941	8.25372980436	180
8	16981	8.27364180693	180
8	17046	8.30729568684	180
8	17075	8.32612719452	180
8	17078	8.32795690927	180
8	17106	8.34128652353	180
8	17123	8.34980068864	180
8	17159	8.36625965733	180
8	17178	8.37709724658	180
8	17186	8.381000278	180
8	17241	8.40411528264	180
8	17248	8.40753595697	180
8	17260	8.4136594736	180
8	17278	8.42239183433	180
8	17290	8.42597533458	180
8	17318	8.43970008691	180
8	17340	8.449510467	180