version 2
run simpleNet-0-20181114-00:32:26-80587
attr configname simpleNet
attr datetime 20181114-00:32:26
attr experiment simpleNet
attr inifile omnetpp.ini
attr iterationvars ""
attr iterationvarsf ""
attr measurement ""
attr network simpleNet
attr processid 80587
attr repetition 0
attr replication #0
attr resultdir results
attr runnumber 0
attr seedset 0

vector 0 simpleNet.node[0] numInQueue:vector ETV
attr interpolationmode none
attr source numInQueue
attr title "total num in queue, vector"
vector 1 simpleNet.node[0] numProcessed:vector ETV
attr interpolationmode none
attr source numProcessed
attr title "num processing events in statRate, vector"
vector 2 simpleNet.node[1] numInQueue:vector ETV
attr interpolationmode none
attr source numInQueue
attr title "total num in queue, vector"
vector 3 simpleNet.node[1] numProcessed:vector ETV
attr interpolationmode none
attr source numProcessed
attr title "num processing events in statRate, vector"
vector 4 simpleNet.node[2] numInQueue:vector ETV
attr interpolationmode none
attr source numInQueue
attr title "total num in queue, vector"
vector 5 simpleNet.node[2] numProcessed:vector ETV
attr interpolationmode none
attr source numProcessed
attr title "num processing events in statRate, vector"
vector 6 simpleNet.node[3] numInQueue:vector ETV
attr interpolationmode none
attr source numInQueue
attr title "total num in queue, vector"
vector 7 simpleNet.node[3] numProcessed:vector ETV
attr interpolationmode none
attr source numProcessed
attr title "num processing events in statRate, vector"
vector 8 simpleNet.node[0] completionTime:vector ETV
attr interpolationmode none
attr source completionTime
attr title "completionTime, vector"
vector 9 simpleNet.node[3] completionTime:vector ETV
attr interpolationmode none
attr source completionTime
attr title "completionTime, vector"
0	2	0	0
0	1482	0.5	0
0	3258	1	0
0	5287	1.5	0
0	7232	2	0
0	9082	2.5	0
0	11205	3	0
0	13490	3.5	0
0	15775	4	0
0	18043	4.5	0
0	20132	5	0
0	22387	5.5	0
0	24769	6	0
0	26784	6.5	0
0	28548	7	0
0	30312	7.5	0
0	32162	8	0
0	34311	8.5	0
0	36343	9	0
0	38156	9.5	0
0	39951	10	0
0	42118	10.5	0
0	44127	11	0
0	46210	11.5	0
0	48216	12	0
0	50067	12.5	0
0	52057	13	0
0	54175	13.5	0
0	56223	14	0
0	57918	14.5	0
0	59873	15	0
0	62020	15.5	0
0	64085	16	0
0	66085	16.5	0
0	68188	17	0
0	70337	17.5	0
0	72343	18	0
0	74322	18.5	0
0	76322	19	0
0	78273	19.5	0
0	80291	20	0
0	82274	20.5	0
0	84177	21	0
0	86162	21.5	0
0	88204	22	0
0	90159	22.5	0
0	91980	23	0
0	94135	23.5	0
0	96215	24	0
0	98345	24.5	0
0	100365	25	0
0	102293	25.5	0
0	104203	26	0
0	106093	26.5	0
0	108153	27	0
0	110374	27.5	0
0	112185	28	0
0	113969	28.5	0
0	115872	29	0
0	117856	29.5	0
0	119884	30	0
0	120677	30.5	0
1	2	0	0
1	1482	0.5	127
1	3258	1	179
1	5287	1.5	200
1	7232	2	197
1	9082	2.5	183
1	11205	3	207
1	13490	3.5	224
1	15775	4	231
1	18043	4.5	228
1	20132	5	217
1	22387	5.5	222
1	24769	6	237
1	26784	6.5	205
1	28548	7	174
1	30312	7.5	172
1	32162	8	188
1	34311	8.5	212
1	36343	9	205
1	38156	9.5	178
1	39951	10	177
1	42118	10.5	224
1	44127	11	195
1	46210	11.5	212
1	48216	12	201
1	50067	12.5	182
1	52057	13	199
1	54175	13.5	212
1	56223	14	206
1	57918	14.5	168
1	59873	15	192
1	62020	15.5	215
1	64085	16	210
1	66085	16.5	199
1	68188	17	209
1	70337	17.5	217
1	72343	18	194
1	74322	18.5	198
1	76322	19	210
1	78273	19.5	190
1	80291	20	199
1	82274	20.5	202
1	84177	21	186
1	86162	21.5	197
1	88204	22	203
1	90159	22.5	196
1	91980	23	177
1	94135	23.5	213
1	96215	24	218
1	98345	24.5	210
1	100365	25	201
1	102293	25.5	185
1	104203	26	197
1	106093	26.5	179
1	108153	27	212
1	110374	27.5	216
1	112185	28	184
1	113969	28.5	174
1	115872	29	181
1	117856	29.5	189
1	119884	30	208
1	120677	30.5	105
2	3	0	0
2	1483	0.5	0
2	3259	1	5
2	5288	1.5	11
2	7233	2	14
2	9083	2.5	13
2	11206	3	16
2	13491	3.5	0
2	15776	4	0
2	18044	4.5	0
2	20133	5	0
2	22388	5.5	2
2	24770	6	0
2	26785	6.5	0
2	28549	7	4
2	30313	7.5	17
2	32163	8	25
2	34312	8.5	14
2	36344	9	8
2	38157	9.5	29
2	39952	10	12
2	42119	10.5	0
2	44128	11	0
2	46211	11.5	0
2	48217	12	0
2	50068	12.5	0
2	52058	13	0
2	54176	13.5	0
2	56224	14	0
2	57919	14.5	0
2	59874	15	0
2	62021	15.5	6
2	64086	16	0
2	66086	16.5	0
2	68189	17	0
2	70338	17.5	0
2	72344	18	0
2	74323	18.5	0
2	76323	19	0
2	78274	19.5	0
2	80292	20	0
2	82275	20.5	0
2	84178	21	0
2	86163	21.5	0
2	88205	22	9
2	90160	22.5	11
2	91981	23	10
2	94136	23.5	0
2	96216	24	0
2	98346	24.5	0
2	100366	25	0
2	102294	25.5	0
2	104204	26	0
2	106094	26.5	0
2	108154	27	0
2	110375	27.5	0
2	112186	28	0
2	113970	28.5	0
2	115873	29	0
2	117857	29.5	0
2	119885	30	0
2	120678	30.5	0
3	3	0	0
3	1483	0.5	254
3	3259	1	356
3	5288	1.5	397
3	7233	2	392
3	9083	2.5	371
3	11206	3	422
3	13491	3.5	443
3	15776	4	470
3	18044	4.5	452
3	20133	5	429
3	22388	5.5	441
3	24770	6	478
3	26785	6.5	401
3	28549	7	362
3	30313	7.5	342
3	32163	8	371
3	34312	8.5	419
3	36344	9	412
3	38157	9.5	361
3	39952	10	354
3	42119	10.5	443
3	44128	11	396
3	46211	11.5	427
3	48217	12	391
3	50068	12.5	371
3	52058	13	400
3	54176	13.5	417
3	56224	14	411
3	57919	14.5	345
3	59874	15	378
3	62021	15.5	430
3	64086	16	420
3	66086	16.5	396
3	68189	17	420
3	70338	17.5	432
3	72344	18	396
3	74323	18.5	398
3	76323	19	407
3	78274	19.5	384
3	80292	20	395
3	82275	20.5	404
3	84178	21	374
3	86163	21.5	396
3	88205	22	406
3	90160	22.5	393
3	91981	23	358
3	94136	23.5	427
3	96216	24	429
3	98346	24.5	421
3	100366	25	400
3	102294	25.5	384
3	104204	26	388
3	106094	26.5	356
3	108154	27	419
3	110375	27.5	435
3	112186	28	367
3	113970	28.5	343
3	115873	29	370
3	117857	29.5	382
3	119885	30	413
3	120678	30.5	207
4	4	0	0
4	1484	0.5	0
4	3260	1	0
4	5289	1.5	0
4	7234	2	0
4	9084	2.5	0
4	11207	3	0
4	13492	3.5	0
4	15777	4	4
4	18045	4.5	0
4	20134	5	0
4	22389	5.5	0
4	24771	6	0
4	26786	6.5	0
4	28550	7	0
4	30314	7.5	0
4	32164	8	0
4	34313	8.5	0
4	36345	9	0
4	38158	9.5	0
4	39953	10	0
4	42120	10.5	0
4	44129	11	0
4	46212	11.5	0
4	48218	12	12
4	50069	12.5	6
4	52059	13	9
4	54177	13.5	0
4	56225	14	0
4	57920	14.5	0
4	59875	15	0
4	62022	15.5	0
4	64087	16	0
4	66087	16.5	0
4	68190	17	0
4	70339	17.5	0
4	72345	18	0
4	74324	18.5	0
4	76324	19	0
4	78275	19.5	0
4	80293	20	0
4	82276	20.5	0
4	84179	21	0
4	86164	21.5	0
4	88206	22	0
4	90161	22.5	0
4	91982	23	0
4	94137	23.5	0
4	96217	24	0
4	98347	24.5	1
4	100367	25	13
4	102295	25.5	16
4	104205	26	15
4	106095	26.5	30
4	108155	27	32
4	110376	27.5	33
4	112187	28	47
4	113971	28.5	72
4	115874	29	80
4	117858	29.5	110
4	119886	30	110
4	120679	30.5	76
5	4	0	0
5	1484	0.5	261
5	3260	1	349
5	5289	1.5	406
5	7234	2	382
5	9084	2.5	370
5	11207	3	423
5	13492	3.5	445
5	15777	4	467
5	18045	4.5	458
5	20134	5	423
5	22389	5.5	441
5	24771	6	480
5	26786	6.5	404
5	28550	7	356
5	30314	7.5	340
5	32164	8	369
5	34313	8.5	429
5	36345	9	412
5	38158	9.5	355
5	39953	10	348
5	42120	10.5	448
5	44129	11	403
5	46212	11.5	418
5	48218	12	396
5	50069	12.5	377
5	52059	13	392
5	54177	13.5	424
5	56225	14	409
5	57920	14.5	345
5	59875	15	385
5	62022	15.5	421
5	64087	16	423
5	66087	16.5	394
5	68190	17	412
5	70339	17.5	431
5	72345	18	404
5	74324	18.5	392
5	76324	19	410
5	78275	19.5	384
5	80293	20	403
5	82276	20.5	394
5	84179	21	379
5	86164	21.5	399
5	88206	22	402
5	90161	22.5	391
5	91982	23	364
5	94137	23.5	427
5	96217	24	423
5	98347	24.5	424
5	100367	25	398
5	102295	25.5	386
5	104205	26	384
5	106095	26.5	363
5	108155	27	415
5	110376	27.5	435
5	112187	28	366
5	113971	28.5	346
5	115874	29	370
5	117858	29.5	383
5	119886	30	408
5	120679	30.5	210
6	6	0	0
6	1485	0.5	0
6	3261	1	0
6	5290	1.5	0
6	7235	2	0
6	9085	2.5	0
6	11208	3	0
6	13493	3.5	0
6	15778	4	0
6	18046	4.5	0
6	20135	5	0
6	22390	5.5	0
6	24772	6	0
6	26787	6.5	0
6	28551	7	0
6	30315	7.5	0
6	32165	8	0
6	34314	8.5	0
6	36346	9	0
6	38159	9.5	0
6	39954	10	0
6	42121	10.5	0
6	44130	11	0
6	46213	11.5	0
6	48219	12	0
6	50070	12.5	0
6	52060	13	0
6	54178	13.5	0
6	56226	14	0
6	57921	14.5	0
6	59876	15	0
6	62023	15.5	0
6	64088	16	0
6	66088	16.5	0
6	68191	17	0
6	70340	17.5	0
6	72346	18	0
6	74325	18.5	0
6	76325	19	0
6	78276	19.5	0
6	80294	20	0
6	82277	20.5	0
6	84180	21	0
6	86165	21.5	0
6	88207	22	0
6	90162	22.5	0
6	91983	23	0
6	94138	23.5	0
6	96218	24	0
6	98348	24.5	0
6	100368	25	0
6	102296	25.5	0
6	104206	26	0
6	106096	26.5	0
6	108156	27	0
6	110377	27.5	0
6	112188	28	0
6	113972	28.5	0
6	115875	29	0
6	117859	29.5	0
6	119887	30	0
6	120680	30.5	0
7	6	0	0
7	1485	0.5	133
7	3261	1	171
7	5290	1.5	200
7	7235	2	197
7	9085	2.5	182
7	11208	3	214
7	13493	3.5	219
7	15778	4	235
7	18046	4.5	228
7	20135	5	213
7	22390	5.5	221
7	24772	6	238
7	26787	6.5	202
7	28551	7	181
7	30315	7.5	169
7	32165	8	187
7	34314	8.5	209
7	36346	9	207
7	38159	9.5	180
7	39954	10	172
7	42121	10.5	224
7	44130	11	205
7	46213	11.5	206
7	48219	12	196
7	50070	12.5	188
7	52060	13	201
7	54178	13.5	208
7	56226	14	205
7	57921	14.5	170
7	59876	15	194
7	62023	15.5	213
7	64088	16	212
7	66088	16.5	197
7	68191	17	209
7	70340	17.5	211
7	72346	18	204
7	74325	18.5	196
7	76325	19	202
7	78276	19.5	194
7	80294	20	201
7	82277	20.5	196
7	84180	21	190
7	86165	21.5	202
7	88207	22	201
7	90162	22.5	197
7	91983	23	178
7	94138	23.5	215
7	96218	24	210
7	98348	24.5	215
7	100368	25	195
7	102296	25.5	196
7	104206	26	194
7	106096	26.5	182
7	108156	27	206
7	110377	27.5	215
7	112188	28	183
7	113972	28.5	171
7	115875	29	189
7	117859	29.5	194
7	119887	30	202
7	120680	30.5	103
8	302	0.18	180
8	311	0.180827871307	180
8	323	0.183689994959	180
8	343	0.189954568886	180
8	352	0.192168204894	180
8	392	0.202831377921	180
8	399	0.204569745845	180
8	409	0.206752168927	180
8	411	0.207208863747	180
8	424	0.210525660605	180
8	435	0.212804870057	180
8	445	0.215380829684	180
8	475	0.223484221401	180
8	479	0.22493391843	180
8	482	0.22550918762	180
8	486	0.226369552662	180
8	496	0.22838872975	180
8	514	0.231251800601	180
8	520	0.232914507004	180
8	522	0.232975503997	180
8	630	0.261105873247	180
8	632	0.261195016074	180
8	650	0.268494061711	180
8	654	0.2691170478	180
8	674	0.27386454018	180
8	697	0.281807326767	180
8	702	0.282371463457	180
8	724	0.288607659891	180
8	726	0.288715258556	180
8	741	0.292906930662	180
8	750	0.296023857387	180
8	769	0.302114756096	180
8	785	0.306700660263	180
8	854	0.325751693339	180
8	876	0.332329348295	180
8	878	0.332566066773	180
8	893	0.339033658868	180
8	898	0.339723997158	180
8	900	0.339744527284	180
8	931	0.347901756014	180
8	933	0.348291159288	180
8	1015	0.373070568086	180
8	1024	0.375498660672	180
8	1076	0.389856959448	180
8	1128	0.404601403959	180
8	1139	0.407190064179	180
8	1183	0.419063540883	180
8	1210	0.424550459788	180
8	1213	0.4250422299	180
8	1216	0.427779606125	180
8	1228	0.432220504366	180
8	1230	0.43277699454	180
8	1236	0.433743329903	180
8	1242	0.435099000657	180
8	1262	0.440822322862	180
8	1284	0.444665737982	180
8	1292	0.446959674442	180
8	1319	0.452676400964	180
8	1341	0.460386960232	180
8	1344	0.460740867028	180
8	1367	0.468370425618	180
8	1392	0.473369477047	180
8	1397	0.474318744897	180
8	1410	0.478451867941	180
8	1412	0.478624378945	180
8	1422	0.480339576296	180
8	1427	0.48172386011	180
8	1450	0.489589919121	180
8	1492	0.502109230635	180
8	1499	0.503159251368	180
8	1504	0.503918956582	180
8	1526	0.509936198845	180
8	1550	0.514130612609	180
8	1564	0.519826958649	180
8	1568	0.521687807258	180
8	1573	0.523102303857	180
8	1587	0.52835627148	180
8	1610	0.535393180886	180
8	1613	0.536335505707	180
8	1632	0.542257958047	180
8	1637	0.542459716549	180
8	1640	0.542788090677	180
8	1642	0.542838801987	180
8	1698	0.561078116896	180
8	1702	0.562196675637	180
8	1734	0.571291753198	180
8	1740	0.572373024737	180
8	1751	0.573978536017	180
8	1771	0.581696748965	180
8	1780	0.583241436223	180
8	1785	0.584388183724	180
8	1794	0.587314747862	180
8	1798	0.588260170007	180
8	1810	0.591271230446	180
8	1829	0.59833683084	180
8	1833	0.598730058644	180
8	1844	0.600957644915	180
8	1849	0.602372508454	180
8	1877	0.610095886997	180
8	1908	0.617316533025	180
8	1921	0.620568707339	180
8	1932	0.623326587706	181.545792977
8	1946	0.628963248278	180
8	1963	0.633689044904	180
8	1999	0.646165118163	188.225254465
8	2009	0.650050814956	180
8	2017	0.652371984157	180
8	2033	0.65881283941	180
8	2063	0.669323059102	180
8	2114	0.688653161082	193.95537233
8	2188	0.712700694157	206.667075087
8	2192	0.714084434834	203.193120908
8	2211	0.72007911362	206.160258101
8	2221	0.722946664724	205.186199279
8	2233	0.726419058269	207.641306628
8	2257	0.733117352357	196.085857496
8	2268	0.735989984525	180
8	2296	0.746439218085	180
8	2316	0.750760251	182.045222105
8	2340	0.757858094447	186.492172792
8	2360	0.763013885336	189.598722588
8	2374	0.765836444261	191.707757155
8	2430	0.78277393317	208.361117268
8	2441	0.784697545523	205.896862196
8	2446	0.786453703365	205.115041247
8	2460	0.79054766272	201.102460786
8	2468	0.791934219998	200.020040693
8	2598	0.830960573615	238.377267888
8	2627	0.839597390611	229.198498558
8	2654	0.849145149438	238.439086827
8	2660	0.849624496898	235.863848101
8	2701	0.859006713337	240.029041898
8	2724	0.86718613132	234.462044
8	2789	0.882949725512	244.507665767
8	2792	0.883087607523	235.854345045
8	2795	0.883320630315	231.15212774
8	2804	0.885684859073	205.898362581
8	2833	0.894962617962	212.569829818
8	2843	0.897672574958	206.111349984
8	2858	0.901287177686	202.985427777
8	2863	0.903675839324	198.129760297
8	2865	0.904251390392	194.967270081
8	2867	0.904472348953	191.974044595
8	2964	0.927355577265	180
8	2972	0.928903393618	180
8	3001	0.936663500289	180
8	3014	0.938796373179	180
8	3016	0.939210110914	180
8	3022	0.940913176787	180
8	3025	0.941923377733	180
8	3054	0.948642918657	180
8	3065	0.950233681707	180
8	3077	0.954101703173	180
8	3097	0.959672651897	180
8	3109	0.963305703964	180
8	3132	0.96827238849	180
8	3139	0.970418989571	180
8	3213	0.987219476878	196.109775917
8	3216	0.987998545734	181.388381398
8	3250	0.997851116363	188.154120653
8	3255	0.999329156407	180
8	3267	1.001749476221	181.737647958
8	3331	1.015713389537	190.019508461
8	3351	1.0207220315	186.045880973
8	3364	1.025442255249	190.518691014
8	3366	1.02552233988	187.350702812
8	3391	1.032618685277	180
8	3397	1.034385936602	181.181940612
8	3415	1.037727828476	182.52904857
8	3421	1.038773360136	182.207807675
8	3446	1.044893243998	180
8	3458	1.048536922396	180.406356084
8	3503	1.062239102327	187.602252893
8	3576	1.079774465546	203.929513302
8	3601	1.085948787709	208.928324991
8	3628	1.093042453019	211.24696241
8	3633	1.094725235851	199.744051119
8	3650	1.097394462507	199.75013752
8	3661	1.099702981181	196.760026399
8	3664	1.099819482051	184.623444091
8	3690	1.10667654866	180
8	3731	1.11715433968	188.039769931
8	3757	1.123476827285	193.259521775
8	3792	1.13151468975	196.813922117
8	3798	1.132095930152	195.415287896
8	3804	1.134154908429	196.344578394
8	3841	1.144628166875	201.976649488
8	3847	1.146471661893	203.618309712
8	3866	1.150709815875	206.725429114
8	3870	1.152210128009	207.034747022
8	3883	1.155536138292	201.82051052
8	3906	1.161165121601	205.791122036
8	3916	1.163052131196	198.953898124
8	3919	1.164687385286	189.686283858
8	3934	1.16823977721	193.216236774
8	3993	1.183439337121	201.829641114
8	4007	1.185894606625	201.008505786
8	4012	1.18649480245	192.888041985
8	4057	1.200418648085	206.070208504
8	4091	1.208487577911	208.487577911
8	4126	1.215790898002	207.677794512
8	4144	1.218790451614	210.280299824
8	4146	1.219254955711	209.858249501
8	4196	1.23225908246	219.83852007
8	4211	1.235291287051	218.004136141
8	4219	1.237069643853	216.477940003
8	4221	1.237705217971	211.110100381
8	4223	1.237917095478	197.302425318
8	4252	1.245369093515	184.433005845
8	4256	1.245721881732	184.499503232
8	4269	1.248434221653	186.282128463
8	4278	1.251317788893	183.778671443
8	4281	1.25167509037	181.83990841
8	4293	1.25618641805	180
8	4315	1.26218999864	180
8	4318	1.2626784634	180
8	4320	1.26279974206	180
8	4415	1.287790534052	202.955886642
8	4419	1.288903043835	200.001049625
8	4436	1.293206800491	197.531562351
8	4470	1.302236921497	205.822250067
8	4507	1.309802612029	207.960709499
8	4527	1.316909647152	211.275140452
8	4583	1.33	215.03842117
8	4587	1.33046206707	210.49714629
8	4614	1.33600773061	214.23374241
8	4622	1.336717305	210.40760447
8	4640	1.34272986394	200.75138506
8	4650	1.3462269683	202.28602644
8	4658	1.34764698081	200.69149771
8	4669	1.35081553508	202.94544885
8	4675	1.35213637375	201.31707306
8	4725	1.36495685743	191.66923724
8	4728	1.3652194972	191.35516274
8	4745	1.36821615482	188.16734411
8	4777	1.376642161	196.01147716
8	4835	1.38982139759	208.87789612
8	4841	1.39044630461	202.6262173
8	4874	1.39865190969	200.45892536
8	4883	1.40263416555	202.89926463
8	4896	1.40615351255	206.04365235
8	4915	1.4109818931	204.30335893
8	4934	1.4150898604	200.95830415
8	4936	1.41513655233	200.18894195
8	4950	1.4195521443	203.6041824
8	4952	1.41974282625	199.35202243
8	5025	1.43775668025	214.16394856
8	5084	1.45310926672	217.42600096
8	5087	1.45346783929	217.35646098
8	5108	1.45651265531	210.81794307
8	5170	1.47318375626	207.35591732
8	5178	1.47440975367	197.81330877
8	5198	1.47931891088	201.66729969
8	5208	1.48285783384	204.08048218
8	5229	1.48575938031	206.85220897
8	5245	1.4899881535	200.38010064
8	5253	1.49158950275	199.05071241
8	5267	1.49570060292	201.23269259
8	5285	1.4997236488	204.94911718
8	5313	1.50505966216	206.95213854
8	5316	1.50540141052	201.15741633
8	5325	1.50697847018	201.0091663
8	5330	1.50888624155	201.45834652
8	5353	1.51437376867	203.03985207
8	5365	1.51631184639	200.61529314
8	5424	1.53105319207	213.97373723
8	5436	1.53454709295	210.71959178
8	5453	1.53833672063	206.52214258
8	5472	1.54366333917	208.57130453
8	5507	1.55169915641	213.3709903
8	5516	1.55450639106	210.67642533
8	5525	1.55546914254	187.50219662
8	5536	1.55774352851	188.44246217
8	5539	1.55801526026	182.70167416
8	5547	1.56037474344	184.62051558
8	5567	1.56643558351	187.82954311
8	5580	1.57024004418	188.6203898
8	5603	1.57571268867	192.93282094
8	5608	1.5763728301	187.85945297
8	5615	1.57732560656	187.48590197
8	5678	1.59396943156	197.61547635
8	5721	1.60634756219	194.9650025
8	5727	1.6071521972	191.63021977
8	5736	1.60933749116	183.38087348
8	5769	1.61831543057	191.75488917
8	5772	1.61901572485	188.33230132
8	5788	1.62389007257	192.95766669
8	5831	1.63563753208	203.24761401
8	5886	1.64911844722	211.51084887
8	5897	1.65278362985	215.09068203
8	5910	1.65666039673	218.25025985
8	5928	1.66235236714	221.50745935
8	5930	1.66286569356	217.48320675
8	5943	1.66546438952	212.19992884
8	5968	1.67283324023	218.2897518
8	5987	1.67662991003	220.87299435
8	5989	1.67666909042	217.25569661
8	6006	1.68153892313	221.94634895
8	6040	1.6919508845	231.27104281
8	6051	1.6942688116	233.40381885
8	6094	1.70463824122	231.97880739
8	6098	1.70532890247	226.23676968
8	6112	1.70821026551	228.73551323
8	6131	1.71343027074	232.60443041
8	6157	1.72024391691	229.57108774
8	6171	1.7250513679	233.87582273
8	6195	1.73098195759	238.90272235
8	6202	1.73265408233	232.78145224
8	6245	1.74318036662	243.17671912
8	6259	1.74684137279	242.19628523
8	6270	1.75197591211	247.17033781
8	6289	1.75700371741	251.17998049
8	6296	1.75999749835	244.45468868
8	6315	1.76449702183	247.37932046
8	6323	1.76603349185	238.06623014
8	6366	1.77529576238	236.36134173
8	6368	1.77575233298	236.79029281
8	6426	1.79285573035	249.06096233
8	6441	1.79670436536	246.8801518
8	6443	1.79714530939	246.35425775
8	6473	1.80384263222	250.88869145
8	6513	1.81529357845	260.39640803
8	6517	1.8156161561	239.39886804
8	6552	1.82457693365	248.19205396
8	6594	1.83695219893	257.77212067
8	6597	1.83738473618	256.65313219
8	6602	1.84001487563	245.9924914
8	6604	1.84016643828	242.21858056
8	6610	1.84288941078	241.68463787
8	6640	1.84844657915	240.87792267
8	6642	1.84922934673	240.03345648
8	6659	1.85149328131	229.36116389
8	6737	1.87554268001	247.31866689
8	6773	1.88512561176	248.36604528
8	6775	1.88568034032	247.93590034
8	6777	1.88611297726	246.94961688
8	6783	1.88826971156	244.45429559
8	6804	1.89175614359	240.45298613
8	6815	1.89420299848	229.32114032
8	6819	1.89620935116	220.56466652
8	6826	1.89925235252	221.48915244
8	6844	1.90417217826	225.84997006
8	6883	1.91401261968	230.1762498
8	6913	1.92079965533	235.21198812
8	6968	1.93471636378	247.08772523
8	6974	1.93618152224	247.54067337
8	6981	1.93776813432	248.0132117
8	7006	1.94352669548	249.84183342
8	7017	1.9484197959	250.81210024
8	7028	1.94909090321	248.15300042
8	7074	1.96319359796	261.86275735
8	7112	1.97016976798	234.80047805
8	7120	1.970732407	232.57122036
8	7159	1.98230919619	242.34441683
8	7164	1.98253527829	239.04933714
8	7166	1.98266582172	238.3512236
8	7189	1.99209015197	242.76391274
8	7217	1.99694145359	245.39767555
8	7241	2.00030157045	239.61143655
8	7272	2.01027898861	248.35485611
8	7322	2.02551201842	257.46994882
8	7351	2.03051826447	259.36930905
8	7371	2.03639029949	259.78682609
8	7382	2.04011412959	262.97200497
8	7385	2.04091442229	257.78426751
8	7470	2.06189893397	266.5141978
8	7473	2.06256783409	260.51799011
8	7496	2.0699748816	264.81216058
8	7501	2.07143489625	257.93898287
8	7503	2.07217006073	256.9959779
8	7544	2.08341786613	266.85322499
8	7574	2.08972484373	269.79584855
8	7610	2.09873572202	273.17064288
8	7614	2.0990515723	264.77210861
8	7621	2.10243096088	265.07943423
8	7634	2.10506195594	265.22431551
8	7655	2.11191855967	261.00259036
8	7660	2.11323149242	255.59943994
8	7663	2.11348036087	234.10374686
8	7689	2.11840027758	230.8832032
8	7705	2.12141647739	231.94966251
8	7735	2.12882572831	237.40079881
8	7743	2.13377124339	235.3524983
8	7759	2.13968221421	240.79176768
8	7762	2.14037919869	241.43040457
8	7776	2.143635756	244.56998715
8	7780	2.14394638615	244.53435571
8	7784	2.14515235594	243.30427994
8	7793	2.14611525177	242.21291312
8	7808	2.14923452766	234.55228282
8	7814	2.15018127959	232.62098405
8	7900	2.17590701852	256.84281506
8	7905	2.17690009793	255.50022094
8	7907	2.17699519699	250.77212728
8	7919	2.17966028683	252.17276404
8	7993	2.19763149228	261.0366049
8	7997	2.20001143981	252.47440164
8	8051	2.21157981399	262.9543119
8	8067	2.21479947738	266.12352751
8	8087	2.22320964209	273.51881996
8	8090	2.22364759277	271.70221501
8	8095	2.22481996883	272.46525862
8	8119	2.23102732893	277.47238507
8	8133	2.23670775255	268.03981199
8	8141	2.23812934699	259.30092562
8	8176	2.24584586866	264.695524
8	8183	2.24791730767	263.6089801
8	8227	2.26367916633	273.7760798
8	8229	2.26415200967	264.15200967
8	8251	2.27025093659	261.6735488
8	8257	2.27165488483	259.91191739
8	8278	2.27610058289	259.82120786
8	8310	2.28667188029	265.74926185
8	8361	2.30244956761	277.482093
8	8369	2.30367373218	274.1354016
8	8386	2.30818110531	265.33844823
8	8425	2.32082257959	274.67735007
8	8429	2.32233470107	269.34433279
8	8434	2.32546698866	268.70331732
8	8436	2.32556757495	258.34155164
8	8449	2.32912983105	261.82869227
8	8457	2.33	261.55932039
8	8462	2.33123729954	261.05164969
8	8469	2.33282095239	258.64795767
8	8535	2.34861162273	273.86543654
8	8563	2.35803394837	266.34329212
8	8581	2.36092032062	265.54229676
8	8587	2.36299595057	255.9189424
8	8618	2.36965739559	258.95014193
8	8632	2.37481921732	262.43134913
8	8635	2.37563910058	258.38204833
8	8645	2.37672237737	256.42086603
8	8656	2.38066761904	258.05756926
8	8664	2.3831027389	254.73055001
8	8671	2.38774645872	251.81321
8	8676	2.38854015302	251.38922602
8	8748	2.40580072029	255.53834112
8	8751	2.40633319204	255.80027024
8	8798	2.42144613512	260.50200483
8	8810	2.42456287318	263.38817115
8	8898	2.4521661236	290.06106861
8	8907	2.45406253229	291.86564637
8	8925	2.45826926312	291.4243974
8	8945	2.46357794052	292.99731505
8	8974	2.47611214253	302.97605148
8	9023	2.48568377104	311.46115263
8	9039	2.4892049435	310.69069743
8	9071	2.49619141847	314.64758824
8	9119	2.5092315287	326.72061137
8	9140	2.51301509199	321.05017866
8	9144	2.51335917553	320.60690012
8	9149	2.51395137848	317.10170423
8	9158	2.51599436445	318.92508617
8	9169	2.5181751949	316.15643147
8	9179	2.51945048892	312.19518629
8	9212	2.52722927812	302.41455575
8	9221	2.53021850086	305.22639015
8	9240	2.53702018389	302.79987308
8	9258	2.54003748282	300.55446118
8	9289	2.54666979465	298.32693662
8	9310	2.54983443281	296.60197855
8	9373	2.56985349686	297.25473144
8	9377	2.56988347	293.11714851
8	9407	2.57710390352	293.25755407
8	9426	2.58101708674	295.69270779
8	9440	2.58252813719	292.43030856
8	9464	2.5891469879	296.83153072
8	9501	2.5998968816	303.7806058
8	9554	2.61161746364	310.24191983
8	9570	2.61451569671	304.66012028
8	9577	2.61684657972	304.76913232
8	9588	2.62017475278	306.80084121
8	9597	2.62283071483	306.85712166
8	9606	2.62615431702	286.06461796
8	9649	2.63419856478	291.71729068
8	9662	2.6378599522	291.84610533
8	9696	2.64566592853	294.97658952
8	9715	2.65108215903	299.89671251
8	9720	2.65277455586	288.05299586
8	9732	2.65647070742	281.36195232
8	9738	2.65822426367	275.76161484
8	9745	2.65932465959	253.84452331
8	9770	2.66313454926	256.62749715
8	9774	2.66399888588	254.53352798
8	9786	2.66743337911	257.40791558
8	9808	2.67167309759	260.22069808
8	9818	2.67416414799	226.30454602
8	9838	2.67903741609	229.54426778
8	9865	2.68830388468	234.53528366
8	9874	2.69007918898	225.95457794
8	9878	2.69039934709	217.59998054
8	9920	2.69928318986	220.28636385
8	9922	2.69967883776	211.01620775
8	10002	2.71987862982	229.07332731
8	10005	2.72012645631	228.5245575
8	10026	2.72474295171	230.76645801
8	10041	2.72806972621	226.99918771
8	10047	2.72927699295	227.17681761
8	10063	2.73200871087	227.85747063
8	10119	2.74724714303	240.46258351
8	10131	2.74948084766	236.11091888
8	10161	2.75565244534	242.24512158
8	10193	2.76216756521	243.82687589
8	10201	2.76510567623	246.0676436
8	10239	2.77605500813	249.78098435
8	10267	2.78069896085	249.10035916
8	10277	2.78348230697	241.87875052
8	10294	2.78888966759	235.20661529
8	10304	2.79154145049	235.33994683
8	10318	2.79426448184	232.91791125
8	10388	2.81058519425	243.7998697
8	10395	2.81148177659	238.02688275
8	10432	2.82137731382	243.69790271
8	10441	2.82307434866	244.72263761
8	10455	2.82739632412	245.84826638
8	10457	2.82745098141	243.06214261
8	10462	2.82839911811	239.44348153
8	10475	2.83047335765	239.74554253
8	10487	2.83297163471	240.00228717
8	10491	2.83380730084	229.96728365
8	10528	2.8411158462	236.2020185
8	10532	2.84178478753	213.02077713
8	10545	2.84616973035	215.31388871
8	10565	2.84990412507	214.16301417
8	10568	2.85108720472	211.89891984
8	10581	2.85451521345	206.62518928
8	10585	2.85628839611	204.89955469
8	10662	2.87076826244	208.49984621
8	10684	2.87721981401	195.87833315
8	10719	2.8875976572	188.5783472
8	10749	2.89499970702	193.89758155
8	10781	2.89948780314	188.00941401
8	10787	2.90045854918	186.32705633
8	10823	2.91095276609	196.20824881
8	10830	2.91205440367	196.69530274
8	10843	2.91806199309	196.99448401
8	10855	2.92005618007	196.74355625
8	10868	2.92218139346	197.55689175
8	10883	2.92679687972	201.78895554
8	10906	2.92906245365	199.19831685
8	10917	2.93279787092	198.32762946
8	10933	2.9372226138	198.56472722
8	10949	2.94175435196	199.13712721
8	10992	2.9540015214	208.04789827
8	11007	2.95701391581	210.70357231
8	11024	2.95895443612	211.26212809
8	11051	2.96625712956	217.17131937
8	11110	2.98163747392	227.49050498
8	11142	2.98805696921	226.43883797
8	11178	2.99523731761	226.56175023
8	11199	2.99917149381	228.04298251
8	11214	3.00171587758	211.45957567
8	11218	3.00391695938	209.86463914
8	11234	3.00873567393	214.29897542
8	11247	3.01065776555	214.77118894
8	11265	3.0156495952	213.40329337
8	11282	3.01826645547	215.74449109
8	11306	3.02322442922	219.68564428
8	11309	3.02388846757	207.84449857
8	11324	3.02626991531	210.13769249
8	11332	3.02736994407	207.59363907
8	11336	3.02772940651	198.87772706
8	11371	3.03872238514	209.56378838
8	11374	3.038988231	209.53795667
8	11406	3.04603316267	215.27352168
8	11413	3.04715194554	213.42910282
8	11416	3.04775811831	213.92902016
8	11420	3.04857400498	213.45307178
8	11425	3.04897868296	209.12652726
8	11431	3.04973494239	197.81436855
8	11471	3.05858401372	204.3844155
8	11519	3.07157779718	204.99524471
8	11532	3.07515914431	202.75814621
8	11619	3.09909817334	220.66613869
8	11622	3.10007888902	218.13143034
8	11653	3.10547116338	219.84628834
8	11704	3.11798652414	229.42767658
8	11721	3.12176967323	221.34831082
8	11745	3.13012624307	222.90060871
8	11758	3.13247179261	223.63988804
8	11785	3.13753289472	225.37547989
8	11796	3.13889502908	226.31163156
8	11805	3.14112310023	228.33408548
8	11826	3.14658982116	230.97875394
8	11839	3.1494074969	229.94605024
8	11860	3.15538504022	226.96013633
8	11863	3.15633403015	227.64977584
8	11867	3.15792576415	227.91985695
8	11908	3.16682178987	231.24201823
8	11919	3.16881078157	225.05382576
8	11940	3.17448281054	222.24364221
8	11943	3.17472914369	222.25921198
8	11982	3.18466521626	227.84929411
8	11999	3.19035655328	233.21895601
8	12046	3.19923938035	240.50177018
8	12050	3.19999827113	240.96341684
8	12071	3.2057414201	246.22802716
8	12076	3.20649230819	246.87088949
8	12118	3.2183780343	257.90887738
8	12133	3.22136056168	257.13917192
8	12138	3.22242943895	253.84128236
8	12209	3.2379385565	266.85912227
8	12250	3.25021554048	276.2883435
8	12254	3.25099945963	272.08337168
8	12270	3.25400683422	264.32419113
8	12287	3.25685658235	265.72758266
8	12320	3.26398863292	271.3177218
8	12332	3.26705838292	272.13401698
8	12352	3.27118770616	271.18770616
8	12417	3.28512411781	278.41173629
8	12426	3.28694907023	279.12472913
8	12440	3.28969529407	277.85558199
8	12467	3.29526800614	276.13922473
8	12486	3.29996656321	278.97707727
8	12529	3.30999238299	286.6616384
8	12536	3.31123325955	285.74932762
8	12544	3.31322879896	287.50147297
8	12553	3.31478212475	287.16809567
8	12557	3.31492445012	284.58606604
8	12567	3.31660087119	280.27984038
8	12570	3.31792891976	281.00244315
8	12624	3.32897575933	287.30817069
8	12627	3.33	278.10110124
8	12630	3.33050991681	275.9357168
8	12632	3.33070348585	274.06295389
8	12738	3.35416297708	294.53935632
8	12745	3.35647506511	291.05317899
8	12751	3.35747094256	289.2901537
8	12789	3.36619278784	294.69378549
8	12816	3.37148481956	288.77057276
8	12843	3.37580899312	290.95800052
8	12865	3.38147890516	289.3955836
8	12873	3.38246455957	289.07648681
8	12900	3.3883270893	284.63836133
8	12902	3.38857265257	280.67736719
8	12914	3.39151858519	283.55075111
8	12928	3.39403784405	283.91255268
8	12947	3.39736123017	281.03891502
8	12958	3.39859877994	278.64392971
8	12963	3.40076909711	275.52475687