version 2
run simpleNet-0-20181107-06:38:10-31696
attr configname simpleNet
attr datetime 20181107-06:38:10
attr experiment simpleNet
attr inifile omnetpp.ini
attr iterationvars ""
attr iterationvarsf ""
attr measurement ""
attr network simpleNet
attr processid 31696
attr repetition 0
attr replication #0
attr resultdir results
attr runnumber 0
attr seedset 0

vector 0 simpleNet.node[0] numInQueue:vector ETV
attr interpolationmode none
attr source numInQueue
attr title "total num in queue, vector"
vector 1 simpleNet.node[0] numProcessed:vector ETV
attr interpolationmode none
attr source numProcessed
attr title "num processed in statRate time, vector"
vector 2 simpleNet.node[1] numInQueue:vector ETV
attr interpolationmode none
attr source numInQueue
attr title "total num in queue, vector"
vector 3 simpleNet.node[1] numProcessed:vector ETV
attr interpolationmode none
attr source numProcessed
attr title "num processed in statRate time, vector"
vector 4 simpleNet.node[2] numInQueue:vector ETV
attr interpolationmode none
attr source numInQueue
attr title "total num in queue, vector"
vector 5 simpleNet.node[2] numProcessed:vector ETV
attr interpolationmode none
attr source numProcessed
attr title "num processed in statRate time, vector"
vector 6 simpleNet.node[3] numInQueue:vector ETV
attr interpolationmode none
attr source numInQueue
attr title "total num in queue, vector"
vector 7 simpleNet.node[3] numProcessed:vector ETV
attr interpolationmode none
attr source numProcessed
attr title "num processed in statRate time, vector"
vector 8 simpleNet.node[0] completionTime:vector ETV
attr interpolationmode none
attr source completionTime
attr title "completionTime, vector"
vector 9 simpleNet.node[3] completionTime:vector ETV
attr interpolationmode none
attr source completionTime
attr title "completionTime, vector"
0	2	0	0
0	1539	0.5	0
0	3543	1	0
0	5547	1.5	0
0	7551	2	0
0	9555	2.5	0
0	11559	3	0
0	13563	3.5	0
0	15567	4	0
0	17571	4.5	0
0	19575	5	0
0	21579	5.5	0
0	23583	6	0
0	25587	6.5	0
0	27591	7	0
0	29595	7.5	0
0	31599	8	0
0	33603	8.5	0
0	35607	9	0
0	37611	9.5	0
0	39613	10	0
0	40085	10.5	0
1	2	0	0
1	1539	0.5	134
1	3543	1	200
1	5547	1.5	200
1	7551	2	200
1	9555	2.5	200
1	11559	3	200
1	13563	3.5	200
1	15567	4	200
1	17571	4.5	200
1	19575	5	200
1	21579	5.5	200
1	23583	6	200
1	25587	6.5	200
1	27591	7	200
1	29595	7.5	200
1	31599	8	200
1	33603	8.5	200
1	35607	9	200
1	37611	9.5	200
1	39613	10	200
1	40085	10.5	66
2	3	0	0
2	1540	0.5	0
2	3544	1	0
2	5548	1.5	0
2	7552	2	0
2	9556	2.5	0
2	11560	3	0
2	13564	3.5	0
2	15568	4	0
2	17572	4.5	0
2	19576	5	0
2	21580	5.5	0
2	23584	6	0
2	25588	6.5	0
2	27592	7	0
2	29596	7.5	0
2	31600	8	0
2	33604	8.5	0
2	35608	9	0
2	37612	9.5	0
2	39614	10	0
2	40086	10.5	0
3	3	0	0
3	1540	0.5	268
3	3544	1	400
3	5548	1.5	400
3	7552	2	400
3	9556	2.5	400
3	11560	3	400
3	13564	3.5	400
3	15568	4	400
3	17572	4.5	400
3	19576	5	400
3	21580	5.5	400
3	23584	6	400
3	25588	6.5	400
3	27592	7	400
3	29596	7.5	400
3	31600	8	400
3	33604	8.5	400
3	35608	9	400
3	37612	9.5	400
3	39614	10	400
3	40086	10.5	132
4	4	0	0
4	1541	0.5	0
4	3545	1	0
4	5549	1.5	0
4	7553	2	0
4	9557	2.5	0
4	11561	3	0
4	13565	3.5	0
4	15569	4	0
4	17573	4.5	0
4	19577	5	0
4	21581	5.5	0
4	23585	6	0
4	25589	6.5	0
4	27593	7	0
4	29597	7.5	0
4	31601	8	0
4	33605	8.5	0
4	35609	9	0
4	37613	9.5	0
4	39615	10	0
4	40087	10.5	0
5	4	0	0
5	1541	0.5	268
5	3545	1	400
5	5549	1.5	400
5	7553	2	400
5	9557	2.5	400
5	11561	3	400
5	13565	3.5	400
5	15569	4	400
5	17573	4.5	400
5	19577	5	400
5	21581	5.5	400
5	23585	6	400
5	25589	6.5	400
5	27593	7	400
5	29597	7.5	400
5	31601	8	400
5	33605	8.5	400
5	35609	9	400
5	37613	9.5	400
5	39615	10	400
5	40087	10.5	132
6	6	0	0
6	1542	0.5	0
6	3546	1	0
6	5550	1.5	0
6	7554	2	0
6	9558	2.5	0
6	11562	3	0
6	13566	3.5	0
6	15570	4	0
6	17574	4.5	0
6	19578	5	0
6	21582	5.5	0
6	23586	6	0
6	25590	6.5	0
6	27594	7	0
6	29598	7.5	0
6	31602	8	0
6	33606	8.5	0
6	35610	9	0
6	37614	9.5	0
6	39616	10	0
6	40088	10.5	0
7	6	0	0
7	1542	0.5	134
7	3546	1	200
7	5550	1.5	200
7	7554	2	200
7	9558	2.5	200
7	11562	3	200
7	13566	3.5	200
7	15570	4	200
7	17574	4.5	200
7	19578	5	200
7	21582	5.5	200
7	23586	6	200
7	25590	6.5	200
7	27594	7	200
7	29598	7.5	200
7	31602	8	200
7	33606	8.5	200
7	35610	9	200
7	37614	9.5	200
7	39616	10	200
7	40088	10.5	66
8	284	0.18	0.18
8	302	0.185	0.18
8	320	0.19	0.18
8	338	0.195	0.18
8	356	0.2	0.18
8	374	0.205	0.18
8	392	0.21	0.18
8	412	0.215	0.18
8	432	0.22	0.18
8	452	0.225	0.18
8	472	0.23	0.18
8	492	0.235	0.18
8	512	0.24	0.18
8	532	0.245	0.18
8	552	0.25	0.18
8	572	0.255	0.18
8	592	0.26	0.18
8	612	0.265	0.18
8	632	0.27	0.18
8	652	0.275	0.18
8	672	0.28	0.18
8	692	0.285	0.18
8	712	0.29	0.18
8	732	0.295	0.18
8	752	0.3	0.18
8	772	0.305	0.18
8	792	0.31	0.18
8	812	0.315	0.18
8	832	0.32	0.18
8	852	0.325	0.18
8	872	0.33	0.18
8	892	0.335	0.18
8	912	0.34	0.18
8	932	0.345	0.18
8	952	0.35	0.18
8	972	0.355	0.18
8	992	0.36	0.18
8	1012	0.365	0.18
8	1032	0.37	0.18
8	1052	0.375	0.18
8	1072	0.38	0.18
8	1092	0.385	0.18
8	1112	0.39	0.18
8	1132	0.395	0.18
8	1152	0.4	0.18
8	1172	0.405	0.18
8	1192	0.41	0.18
8	1212	0.415	0.18
8	1232	0.42	0.18
8	1252	0.425	0.18
8	1272	0.43	0.18
8	1292	0.435	0.18
8	1312	0.44	0.18
8	1332	0.445	0.18
8	1352	0.45	0.18
8	1372	0.455	0.18
8	1392	0.46	0.18
8	1412	0.465	0.18
8	1432	0.47	0.18
8	1452	0.475	0.18
8	1472	0.48	0.18
8	1492	0.485	0.18
8	1512	0.49	0.18
8	1532	0.495	0.18
8	1556	0.5	0.18
8	1576	0.505	0.18
8	1596	0.51	0.18
8	1616	0.515	0.18
8	1636	0.52	0.18
8	1656	0.525	0.18
8	1676	0.53	0.18
8	1696	0.535	0.18
8	1716	0.54	0.18
8	1736	0.545	0.18
8	1756	0.55	0.18
8	1776	0.555	0.18
8	1796	0.56	0.18
8	1816	0.565	0.18
8	1836	0.57	0.18
8	1856	0.575	0.18
8	1876	0.58	0.18
8	1896	0.585	0.18
8	1916	0.59	0.18
8	1936	0.595	0.18
8	1956	0.6	0.18
8	1976	0.605	0.18
8	1996	0.61	0.18
8	2016	0.615	0.18
8	2036	0.62	0.18
8	2056	0.625	0.18
8	2076	0.63	0.18
8	2096	0.635	0.18
8	2116	0.64	0.18
8	2136	0.645	0.18
8	2156	0.65	0.18
8	2176	0.655	0.18
8	2196	0.66	0.18
8	2216	0.665	0.18
8	2236	0.67	0.18
8	2256	0.675	0.18
8	2276	0.68	0.18
8	2296	0.685	0.18
8	2316	0.69	0.18
8	2336	0.695	0.18
8	2356	0.7	0.18
8	2376	0.705	0.18
8	2396	0.71	0.18
8	2416	0.715	0.18
8	2436	0.72	0.18
8	2456	0.725	0.18
8	2476	0.73	0.18
8	2496	0.735	0.18
8	2516	0.74	0.18
8	2536	0.745	0.18
8	2556	0.75	0.18
8	2576	0.755	0.18
8	2596	0.76	0.18
8	2616	0.765	0.18
8	2636	0.77	0.18
8	2656	0.775	0.18
8	2676	0.78	0.18
8	2696	0.785	0.18
8	2716	0.79	0.18
8	2736	0.795	0.18
8	2756	0.8	0.18
8	2776	0.805	0.18
8	2796	0.81	0.18
8	2816	0.815	0.18
8	2836	0.82	0.18
8	2856	0.825	0.18
8	2876	0.83	0.18
8	2896	0.835	0.18
8	2916	0.84	0.18
8	2936	0.845	0.18
8	2956	0.85	0.18
8	2976	0.855	0.18
8	2996	0.86	0.18
8	3016	0.865	0.18
8	3036	0.87	0.18
8	3056	0.875	0.18
8	3076	0.88	0.18
8	3096	0.885	0.18
8	3116	0.89	0.18
8	3136	0.895	0.18
8	3156	0.9	0.18
8	3176	0.905	0.18
8	3196	0.91	0.18
8	3216	0.915	0.18
8	3236	0.92	0.18
8	3256	0.925	0.18
8	3276	0.93	0.18
8	3296	0.935	0.18
8	3316	0.94	0.18
8	3336	0.945	0.18
8	3356	0.95	0.18
8	3376	0.955	0.18
8	3396	0.96	0.18
8	3416	0.965	0.18
8	3436	0.97	0.18
8	3456	0.975	0.18
8	3476	0.98	0.18
8	3496	0.985	0.18
8	3516	0.99	0.18
8	3536	0.995	0.18
8	3560	1	0.18
8	3580	1.005	0.18
8	3600	1.01	0.18
8	3620	1.015	0.18
8	3640	1.02	0.18
8	3660	1.025	0.18
8	3680	1.03	0.18
8	3700	1.035	0.18
8	3720	1.04	0.18
8	3740	1.045	0.18
8	3760	1.05	0.18
8	3780	1.055	0.18
8	3800	1.06	0.18
8	3820	1.065	0.18
8	3840	1.07	0.18
8	3860	1.075	0.18
8	3880	1.08	0.18
8	3900	1.085	0.18
8	3920	1.09	0.18
8	3940	1.095	0.18
8	3960	1.1	0.18
8	3980	1.105	0.18
8	4000	1.11	0.18
8	4020	1.115	0.18
8	4040	1.12	0.18
8	4060	1.125	0.18
8	4080	1.13	0.18
8	4100	1.135	0.18
8	4120	1.14	0.18
8	4140	1.145	0.18
8	4160	1.15	0.18
8	4180	1.155	0.18
8	4200	1.16	0.18
8	4220	1.165	0.18
8	4240	1.17	0.18
8	4260	1.175	0.18
8	4280	1.18	0.18
8	4300	1.185	0.18
8	4320	1.19	0.18
8	4340	1.195	0.18
8	4360	1.2	0.18
8	4380	1.205	0.18
8	4400	1.21	0.18
8	4420	1.215	0.18
8	4440	1.22	0.18
8	4460	1.225	0.18
8	4480	1.23	0.18
8	4500	1.235	0.18
8	4520	1.24	0.18
8	4540	1.245	0.18
8	4560	1.25	0.18
8	4580	1.255	0.18
8	4600	1.26	0.18
8	4620	1.265	0.18
8	4640	1.27	0.18
8	4660	1.275	0.18
8	4680	1.28	0.18
8	4700	1.285	0.18
8	4720	1.29	0.18
8	4740	1.295	0.18
8	4760	1.3	0.18
8	4780	1.305	0.18
8	4800	1.31	0.18
8	4820	1.315	0.18
8	4840	1.32	0.18
8	4860	1.325	0.18
8	4880	1.33	0.18
8	4900	1.335	0.18
8	4920	1.34	0.18
8	4940	1.345	0.18
8	4960	1.35	0.18
8	4980	1.355	0.18
8	5000	1.36	0.18
8	5020	1.365	0.18
8	5040	1.37	0.18
8	5060	1.375	0.18
8	5080	1.38	0.18
8	5100	1.385	0.18
8	5120	1.39	0.18
8	5140	1.395	0.18
8	5160	1.4	0.18
8	5180	1.405	0.18
8	5200	1.41	0.18
8	5220	1.415	0.18
8	5240	1.42	0.18
8	5260	1.425	0.18
8	5280	1.43	0.18
8	5300	1.435	0.18
8	5320	1.44	0.18
8	5340	1.445	0.18
8	5360	1.45	0.18
8	5380	1.455	0.18
8	5400	1.46	0.18
8	5420	1.465	0.18
8	5440	1.47	0.18
8	5460	1.475	0.18
8	5480	1.48	0.18
8	5500	1.485	0.18
8	5520	1.49	0.18
8	5540	1.495	0.18
8	5564	1.5	0.18
8	5584	1.505	0.18
8	5604	1.51	0.18
8	5624	1.515	0.18
8	5644	1.52	0.18
8	5664	1.525	0.18
8	5684	1.53	0.18
8	5704	1.535	0.18
8	5724	1.54	0.18
8	5744	1.545	0.18
8	5764	1.55	0.18
8	5784	1.555	0.18
8	5804	1.56	0.18
8	5824	1.565	0.18
8	5844	1.57	0.18
8	5864	1.575	0.18
8	5884	1.58	0.18
8	5904	1.585	0.18
8	5924	1.59	0.18
8	5944	1.595	0.18
8	5964	1.6	0.18
8	5984	1.605	0.18
8	6004	1.61	0.18
8	6024	1.615	0.18
8	6044	1.62	0.18
8	6064	1.625	0.18
8	6084	1.63	0.18
8	6104	1.635	0.18
8	6124	1.64	0.18
8	6144	1.645	0.18
8	6164	1.65	0.18
8	6184	1.655	0.18
8	6204	1.66	0.18
8	6224	1.665	0.18
8	6244	1.67	0.18
8	6264	1.675	0.18
8	6284	1.68	0.18
8	6304	1.685	0.18
8	6324	1.69	0.18
8	6344	1.695	0.18
8	6364	1.7	0.18
8	6384	1.705	0.18
8	6404	1.71	0.18
8	6424	1.715	0.18
8	6444	1.72	0.18
8	6464	1.725	0.18
8	6484	1.73	0.18
8	6504	1.735	0.18
8	6524	1.74	0.18
8	6544	1.745	0.18
8	6564	1.75	0.18
8	6584	1.755	0.18
8	6604	1.76	0.18
8	6624	1.765	0.18
8	6644	1.77	0.18
8	6664	1.775	0.18
8	6684	1.78	0.18
8	6704	1.785	0.18
8	6724	1.79	0.18
8	6744	1.795	0.18
8	6764	1.8	0.18
8	6784	1.805	0.18
8	6804	1.81	0.18
8	6824	1.815	0.18
8	6844	1.82	0.18
8	6864	1.825	0.18
8	6884	1.83	0.18
8	6904	1.835	0.18
8	6924	1.84	0.18
8	6944	1.845	0.18
8	6964	1.85	0.18
8	6984	1.855	0.18
8	7004	1.86	0.18
8	7024	1.865	0.18
8	7044	1.87	0.18
8	7064	1.875	0.18
8	7084	1.88	0.18
8	7104	1.885	0.18
8	7124	1.89	0.18
8	7144	1.895	0.18
8	7164	1.9	0.18
8	7184	1.905	0.18
8	7204	1.91	0.18
8	7224	1.915	0.18
8	7244	1.92	0.18
8	7264	1.925	0.18
8	7284	1.93	0.18
8	7304	1.935	0.18
8	7324	1.94	0.18
8	7344	1.945	0.18
8	7364	1.95	0.18
8	7384	1.955	0.18
8	7404	1.96	0.18
8	7424	1.965	0.18
8	7444	1.97	0.18
8	7464	1.975	0.18
8	7484	1.98	0.18
8	7504	1.985	0.18
8	7524	1.99	0.18
8	7544	1.995	0.18
8	7568	2	0.18
8	7588	2.005	0.18
8	7608	2.01	0.18
8	7628	2.015	0.18
8	7648	2.02	0.18
8	7668	2.025	0.18
8	7688	2.03	0.18
8	7708	2.035	0.18
8	7728	2.04	0.18
8	7748	2.045	0.18
8	7768	2.05	0.18
8	7788	2.055	0.18
8	7808	2.06	0.18
8	7828	2.065	0.18
8	7848	2.07	0.18
8	7868	2.075	0.18
8	7888	2.08	0.18
8	7908	2.085	0.18
8	7928	2.09	0.18
8	7948	2.095	0.18
8	7968	2.1	0.18
8	7988	2.105	0.18
8	8008	2.11	0.18
8	8028	2.115	0.18
8	8048	2.12	0.18
8	8068	2.125	0.18
8	8088	2.13	0.18
8	8108	2.135	0.18
8	8128	2.14	0.18
8	8148	2.145	0.18
8	8168	2.15	0.18
8	8188	2.155	0.18
8	8208	2.16	0.18
8	8228	2.165	0.18
8	8248	2.17	0.18
8	8268	2.175	0.18
8	8288	2.18	0.18
8	8308	2.185	0.18
8	8328	2.19	0.18
8	8348	2.195	0.18
8	8368	2.2	0.18
8	8388	2.205	0.18
8	8408	2.21	0.18
8	8428	2.215	0.18
8	8448	2.22	0.18
8	8468	2.225	0.18
8	8488	2.23	0.18
8	8508	2.235	0.18
8	8528	2.24	0.18
8	8548	2.245	0.18
8	8568	2.25	0.18
8	8588	2.255	0.18
8	8608	2.26	0.18
8	8628	2.265	0.18
8	8648	2.27	0.18
8	8668	2.275	0.18
8	8688	2.28	0.18
8	8708	2.285	0.18
8	8728	2.29	0.18
8	8748	2.295	0.18
8	8768	2.3	0.18
8	8788	2.305	0.18
8	8808	2.31	0.18
8	8828	2.315	0.18
8	8848	2.32	0.18
8	8868	2.325	0.18
8	8888	2.33	0.18
8	8908	2.335	0.18
8	8928	2.34	0.18
8	8948	2.345	0.18
8	8968	2.35	0.18
8	8988	2.355	0.18
8	9008	2.36	0.18
8	9028	2.365	0.18
8	9048	2.37	0.18
8	9068	2.375	0.18
8	9088	2.38	0.18
8	9108	2.385	0.18
8	9128	2.39	0.18
8	9148	2.395	0.18
8	9168	2.4	0.18
8	9188	2.405	0.18
8	9208	2.41	0.18
8	9228	2.415	0.18
8	9248	2.42	0.18
8	9268	2.425	0.18
8	9288	2.43	0.18
8	9308	2.435	0.18
8	9328	2.44	0.18
8	9348	2.445	0.18
8	9368	2.45	0.18
8	9388	2.455	0.18
8	9408	2.46	0.18
8	9428	2.465	0.18
8	9448	2.47	0.18
8	9468	2.475	0.18
8	9488	2.48	0.18
8	9508	2.485	0.18
8	9528	2.49	0.18
8	9548	2.495	0.18
8	9572	2.5	0.18
8	9592	2.505	0.18
8	9612	2.51	0.18
8	9632	2.515	0.18
8	9652	2.52	0.18
8	9672	2.525	0.18
8	9692	2.53	0.18
8	9712	2.535	0.18
8	9732	2.54	0.18
8	9752	2.545	0.18
8	9772	2.55	0.18
8	9792	2.555	0.18
8	9812	2.56	0.18
8	9832	2.565	0.18
8	9852	2.57	0.18
8	9872	2.575	0.18
8	9892	2.58	0.18
8	9912	2.585	0.18
8	9932	2.59	0.18
8	9952	2.595	0.18
8	9972	2.6	0.18
8	9992	2.605	0.18
8	10012	2.61	0.18
8	10032	2.615	0.18
8	10052	2.62	0.18
8	10072	2.625	0.18
8	10092	2.63	0.18
8	10112	2.635	0.18
8	10132	2.64	0.18
8	10152	2.645	0.18
8	10172	2.65	0.18
8	10192	2.655	0.18
8	10212	2.66	0.18
8	10232	2.665	0.18
8	10252	2.67	0.18
8	10272	2.675	0.18
8	10292	2.68	0.18
8	10312	2.685	0.18
8	10332	2.69	0.18
8	10352	2.695	0.18
8	10372	2.7	0.18
8	10392	2.705	0.18
8	10412	2.71	0.18
8	10432	2.715	0.18
8	10452	2.72	0.18
8	10472	2.725	0.18
8	10492	2.73	0.18
8	10512	2.735	0.18
8	10532	2.74	0.18
8	10552	2.745	0.18
8	10572	2.75	0.18
8	10592	2.755	0.18
8	10612	2.76	0.18
8	10632	2.765	0.18
8	10652	2.77	0.18
8	10672	2.775	0.18
8	10692	2.78	0.18
8	10712	2.785	0.18
8	10732	2.79	0.18
8	10752	2.795	0.18
8	10772	2.8	0.18
8	10792	2.805	0.18
8	10812	2.81	0.18
8	10832	2.815	0.18
8	10852	2.82	0.18
8	10872	2.825	0.18
8	10892	2.83	0.18
8	10912	2.835	0.18
8	10932	2.84	0.18
8	10952	2.845	0.18
8	10972	2.85	0.18
8	10992	2.855	0.18
8	11012	2.86	0.18
8	11032	2.865	0.18
8	11052	2.87	0.18
8	11072	2.875	0.18
8	11092	2.88	0.18
8	11112	2.885	0.18
8	11132	2.89	0.18
8	11152	2.895	0.18
8	11172	2.9	0.18
8	11192	2.905	0.18
8	11212	2.91	0.18
8	11232	2.915	0.18
8	11252	2.92	0.18
8	11272	2.925	0.18
8	11292	2.93	0.18
8	11312	2.935	0.18
8	11332	2.94	0.18
8	11352	2.945	0.18
8	11372	2.95	0.18
8	11392	2.955	0.18
8	11412	2.96	0.18
8	11432	2.965	0.18
8	11452	2.97	0.18
8	11472	2.975	0.18
8	11492	2.98	0.18
8	11512	2.985	0.18
8	11532	2.99	0.18
8	11552	2.995	0.18
8	11576	3	0.18
8	11596	3.005	0.18
8	11616	3.01	0.18
8	11636	3.015	0.18
8	11656	3.02	0.18
8	11676	3.025	0.18
8	11696	3.03	0.18
8	11716	3.035	0.18
8	11736	3.04	0.18
8	11756	3.045	0.18
8	11776	3.05	0.18
8	11796	3.055	0.18
8	11816	3.06	0.18
8	11836	3.065	0.18
8	11856	3.07	0.18
8	11876	3.075	0.18
8	11896	3.08	0.18
8	11916	3.085	0.18
8	11936	3.09	0.18
8	11956	3.095	0.18
8	11976	3.1	0.18
8	11996	3.105	0.18
8	12016	3.11	0.18
8	12036	3.115	0.18
8	12056	3.12	0.18
8	12076	3.125	0.18
8	12096	3.13	0.18
8	12116	3.135	0.18
8	12136	3.14	0.18
8	12156	3.145	0.18
8	12176	3.15	0.18
8	12196	3.155	0.18
8	12216	3.16	0.18
8	12236	3.165	0.18
8	12256	3.17	0.18
8	12276	3.175	0.18
8	12296	3.18	0.18
8	12316	3.185	0.18
8	12336	3.19	0.18
8	12356	3.195	0.18
8	12376	3.2	0.18
8	12396	3.205	0.18
8	12416	3.21	0.18
8	12436	3.215	0.18
8	12456	3.22	0.18
8	12476	3.225	0.18
8	12496	3.23	0.18
8	12516	3.235	0.18
8	12536	3.24	0.18
8	12556	3.245	0.18
8	12576	3.25	0.18
8	12596	3.255	0.18
8	12616	3.26	0.18
8	12636	3.265	0.18
8	12656	3.27	0.18
8	12676	3.275	0.18
8	12696	3.28	0.18
8	12716	3.285	0.18
8	12736	3.29	0.18
8	12756	3.295	0.18
8	12776	3.3	0.18
8	12796	3.305	0.18
8	12816	3.31	0.18
8	12836	3.315	0.18
8	12856	3.32	0.18
8	12876	3.325	0.18
8	12896	3.33	0.18
8	12916	3.335	0.18
8	12936	3.34	0.18
8	12956	3.345	0.18
8	12976	3.35	0.18
8	12996	3.355	0.18
8	13016	3.36	0.18
8	13036	3.365	0.18
8	13056	3.37	0.18
8	13076	3.375	0.18
8	13096	3.38	0.18
8	13116	3.385	0.18
8	13136	3.39	0.18
8	13156	3.395	0.18
8	13176	3.4	0.18
8	13196	3.405	0.18
8	13216	3.41	0.18
8	13236	3.415	0.18
8	13256	3.42	0.18
8	13276	3.425	0.18
8	13296	3.43	0.18
8	13316	3.435	0.18
8	13336	3.44	0.18
8	13356	3.445	0.18
8	13376	3.45	0.18
8	13396	3.455	0.18
8	13416	3.46	0.18
8	13436	3.465	0.18
8	13456	3.47	0.18
8	13476	3.475	0.18
8	13496	3.48	0.18
8	13516	3.485	0.18
8	13536	3.49	0.18
8	13556	3.495	0.18
8	13580	3.5	0.18
8	13600	3.505	0.18
8	13620	3.51	0.18
8	13640	3.515	0.18
8	13660	3.52	0.18
8	13680	3.525	0.18
8	13700	3.53	0.18
8	13720	3.535	0.18
8	13740	3.54	0.18
8	13760	3.545	0.18
8	13780	3.55	0.18
8	13800	3.555	0.18
8	13820	3.56	0.18
8	13840	3.565	0.18
8	13860	3.57	0.18
8	13880	3.575	0.18
8	13900	3.58	0.18
8	13920	3.585	0.18
8	13940	3.59	0.18
8	13960	3.595	0.18
8	13980	3.6	0.18
8	14000	3.605	0.18
8	14020	3.61	0.18
8	14040	3.615	0.18
8	14060	3.62	0.18
8	14080	3.625	0.18
8	14100	3.63	0.18
8	14120	3.635	0.18
8	14140	3.64	0.18
8	14160	3.645	0.18
8	14180	3.65	0.18
8	14200	3.655	0.18
8	14220	3.66	0.18
8	14240	3.665	0.18
8	14260	3.67	0.18
8	14280	3.675	0.18
8	14300	3.68	0.18
8	14320	3.685	0.18
8	14340	3.69	0.18
8	14360	3.695	0.18
8	14380	3.7	0.18
8	14400	3.705	0.18
8	14420	3.71	0.18
8	14440	3.715	0.18
8	14460	3.72	0.18
8	14480	3.725	0.18
8	14500	3.73	0.18
8	14520	3.735	0.18
8	14540	3.74	0.18
8	14560	3.745	0.18
8	14580	3.75	0.18
8	14600	3.755	0.18
8	14620	3.76	0.18
8	14640	3.765	0.18
8	14660	3.77	0.18
8	14680	3.775	0.18
8	14700	3.78	0.18
8	14720	3.785	0.18
8	14740	3.79	0.18
8	14760	3.795	0.18
8	14780	3.8	0.18
8	14800	3.805	0.18
8	14820	3.81	0.18
8	14840	3.815	0.18
8	14860	3.82	0.18
8	14880	3.825	0.18
8	14900	3.83	0.18
8	14920	3.835	0.18
8	14940	3.84	0.18
8	14960	3.845	0.18
8	14980	3.85	0.18
8	15000	3.855	0.18
8	15020	3.86	0.18
8	15040	3.865	0.18
8	15060	3.87	0.18
8	15080	3.875	0.18
8	15100	3.88	0.18
8	15120	3.885	0.18
8	15140	3.89	0.18
8	15160	3.895	0.18
8	15180	3.9	0.18
8	15200	3.905	0.18
8	15220	3.91	0.18
8	15240	3.915	0.18
8	15260	3.92	0.18
8	15280	3.925	0.18
8	15300	3.93	0.18
8	15320	3.935	0.18
8	15340	3.94	0.18
8	15360	3.945	0.18
8	15380	3.95	0.18
8	15400	3.955	0.18
8	15420	3.96	0.18
8	15440	3.965	0.18
8	15460	3.97	0.18
8	15480	3.975	0.18
8	15500	3.98	0.18
8	15520	3.985	0.18
8	15540	3.99	0.18
8	15560	3.995	0.18
8	15584	4	0.18
8	15604	4.005	0.18
8	15624	4.01	0.18
8	15644	4.015	0.18
8	15664	4.02	0.18
8	15684	4.025	0.18
8	15704	4.03	0.18
8	15724	4.035	0.18
8	15744	4.04	0.18
8	15764	4.045	0.18
8	15784	4.05	0.18
8	15804	4.055	0.18
8	15824	4.06	0.18
8	15844	4.065	0.18
8	15864	4.07	0.18
8	15884	4.075	0.18
8	15904	4.08	0.18
8	15924	4.085	0.18
8	15944	4.09	0.18
8	15964	4.095	0.18
8	15984	4.1	0.18
8	16004	4.105	0.18
8	16024	4.11	0.18
8	16044	4.115	0.18
8	16064	4.12	0.18
8	16084	4.125	0.18
8	16104	4.13	0.18
8	16124	4.135	0.18
8	16144	4.14	0.18
8	16164	4.145	0.18
8	16184	4.15	0.18
8	16204	4.155	0.18
8	16224	4.16	0.18
8	16244	4.165	0.18
8	16264	4.17	0.18
8	16284	4.175	0.18
8	16304	4.18	0.18
8	16324	4.185	0.18
8	16344	4.19	0.18
8	16364	4.195	0.18
8	16384	4.2	0.18
8	16404	4.205	0.18
8	16424	4.21	0.18
8	16444	4.215	0.18
8	16464	4.22	0.18
8	16484	4.225	0.18
8	16504	4.23	0.18
8	16524	4.235	0.18
8	16544	4.24	0.18
8	16564	4.245	0.18
8	16584	4.25	0.18
8	16604	4.255	0.18
8	16624	4.26	0.18
8	16644	4.265	0.18
8	16664	4.27	0.18
8	16684	4.275	0.18
8	16704	4.28	0.18
8	16724	4.285	0.18
8	16744	4.29	0.18
8	16764	4.295	0.18
8	16784	4.3	0.18
8	16804	4.305	0.18
8	16824	4.31	0.18
8	16844	4.315	0.18
8	16864	4.32	0.18
8	16884	4.325	0.18
8	16904	4.33	0.18
8	16924	4.335	0.18
8	16944	4.34	0.18
8	16964	4.345	0.18
8	16984	4.35	0.18
8	17004	4.355	0.18
8	17024	4.36	0.18
8	17044	4.365	0.18
8	17064	4.37	0.18
8	17084	4.375	0.18
8	17104	4.38	0.18
8	17124	4.385	0.18
8	17144	4.39	0.18
8	17164	4.395	0.18
8	17184	4.4	0.18
8	17204	4.405	0.18
8	17224	4.41	0.18
8	17244	4.415	0.18
8	17264	4.42	0.18
8	17284	4.425	0.18
8	17304	4.43	0.18
8	17324	4.435	0.18
8	17344	4.44	0.18
8	17364	4.445	0.18
8	17384	4.45	0.18
8	17404	4.455	0.18
8	17424	4.46	0.18
8	17444	4.465	0.18
8	17464	4.47	0.18
8	17484	4.475	0.18
8	17504	4.48	0.18
8	17524	4.485	0.18
8	17544	4.49	0.18
8	17564	4.495	0.18
8	17588	4.5	0.18
8	17608	4.505	0.18
8	17628	4.51	0.18
8	17648	4.515	0.18
8	17668	4.52	0.18
8	17688	4.525	0.18
8	17708	4.53	0.18
8	17728	4.535	0.18
8	17748	4.54	0.18
8	17768	4.545	0.18
8	17788	4.55	0.18
8	17808	4.555	0.18
8	17828	4.56	0.18
8	17848	4.565	0.18
8	17868	4.57	0.18
8	17888	4.575	0.18
8	17908	4.58	0.18
8	17928	4.585	0.18
8	17948	4.59	0.18
8	17968	4.595	0.18
8	17988	4.6	0.18
8	18008	4.605	0.18
8	18028	4.61	0.18
8	18048	4.615	0.18
8	18068	4.62	0.18
8	18088	4.625	0.18
8	18108	4.63	0.18
8	18128	4.635	0.18
8	18148	4.64	0.18
8	18168	4.645	0.18
8	18188	4.65	0.18
8	18208	4.655	0.18
8	18228	4.66	0.18
8	18248	4.665	0.18
8	18268	4.67	0.18
8	18288	4.675	0.18
8	18308	4.68	0.18
8	18328	4.685	0.18
8	18348	4.69	0.18
8	18368	4.695	0.18
8	18388	4.7	0.18
8	18408	4.705	0.18
8	18428	4.71	0.18
8	18448	4.715	0.18
8	18468	4.72	0.18
8	18488	4.725	0.18
8	18508	4.73	0.18
8	18528	4.735	0.18
8	18548	4.74	0.18
8	18568	4.745	0.18
8	18588	4.75	0.18
8	18608	4.755	0.18
8	18628	4.76	0.18
8	18648	4.765	0.18
8	18668	4.77	0.18
8	18688	4.775	0.18
8	18708	4.78	0.18
8	18728	4.785	0.18
8	18748	4.79	0.18
8	18768	4.795	0.18
8	18788	4.8	0.18
8	18808	4.805	0.18
8	18828	4.81	0.18
8	18848	4.815	0.18
8	18868	4.82	0.18
8	18888	4.825	0.18
8	18908	4.83	0.18
8	18928	4.835	0.18
8	18948	4.84	0.18
8	18968	4.845	0.18
8	18988	4.85	0.18
8	19008	4.855	0.18
8	19028	4.86	0.18
8	19048	4.865	0.18
8	19068	4.87	0.18
8	19088	4.875	0.18
8	19108	4.88	0.18
8	19128	4.885	0.18
8	19148	4.89	0.18
8	19168	4.895	0.18
8	19188	4.9	0.18
8	19208	4.905	0.18
8	19228	4.91	0.18
8	19248	4.915	0.18
8	19268	4.92	0.18
8	19288	4.925	0.18
8	19308	4.93	0.18
8	19328	4.935	0.18
8	19348	4.94	0.18
8	19368	4.945	0.18
8	19388	4.95	0.18
8	19408	4.955	0.18
8	19428	4.96	0.18
8	19448	4.965	0.18
8	19468	4.97	0.18
8	19488	4.975	0.18
8	19508	4.98	0.18
8	19528	4.985	0.18
8	19548	4.99	0.18
8	19568	4.995	0.18
8	19592	5	0.18
8	19612	5.005	0.18
8	19632	5.01	0.18
8	19652	5.015	0.18
8	19672	5.02	0.18
8	19692	5.025	0.18
8	19712	5.03	0.18
8	19732	5.035	0.18
8	19752	5.04	0.18
8	19772	5.045	0.18
8	19792	5.05	0.18
8	19812	5.055	0.18
8	19832	5.06	0.18
8	19852	5.065	0.18
8	19872	5.07	0.18
8	19892	5.075	0.18
8	19912	5.08	0.18
8	19932	5.085	0.18
8	19952	5.09	0.18
8	19972	5.095	0.18
8	19992	5.1	0.18
8	20012	5.105	0.18
8	20032	5.11	0.18
8	20052	5.115	0.18
8	20072	5.12	0.18
8	20092	5.125	0.18
8	20112	5.13	0.18
8	20132	5.135	0.18
8	20152	5.14	0.18
8	20172	5.145	0.18
8	20192	5.15	0.18
8	20212	5.155	0.18
8	20232	5.16	0.18
8	20252	5.165	0.18
8	20272	5.17	0.18
8	20292	5.175	0.18
8	20312	5.18	0.18
8	20332	5.185	0.18
8	20352	5.19	0.18
8	20372	5.195	0.18
8	20392	5.2	0.18
8	20412	5.205	0.18
8	20432	5.21	0.18
8	20452	5.215	0.18
8	20472	5.22	0.18
8	20492	5.225	0.18
8	20512	5.23	0.18
8	20532	5.235	0.18
8	20552	5.24	0.18
8	20572	5.245	0.18
8	20592	5.25	0.18
8	20612	5.255	0.18
8	20632	5.26	0.18
8	20652	5.265	0.18
8	20672	5.27	0.18
8	20692	5.275	0.18
8	20712	5.28	0.18
8	20732	5.285	0.18
8	20752	5.29	0.18
8	20772	5.295	0.18
8	20792	5.3	0.18
8	20812	5.305	0.18
8	20832	5.31	0.18
8	20852	5.315	0.18
8	20872	5.32	0.18
8	20892	5.325	0.18
8	20912	5.33	0.18
8	20932	5.335	0.18
8	20952	5.34	0.18
8	20972	5.345	0.18
8	20992	5.35	0.18
8	21012	5.355	0.18
8	21032	5.36	0.18
8	21052	5.365	0.18
8	21072	5.37	0.18
8	21092	5.375	0.18
8	21112	5.38	0.18
8	21132	5.385	0.18
8	21152	5.39	0.18
8	21172	5.395	0.18
8	21192	5.4	0.18
8	21212	5.405	0.18
8	21232	5.41	0.18
8	21252	5.415	0.18
8	21272	5.42	0.18
8	21292	5.425	0.18
8	21312	5.43	0.18
8	21332	5.435	0.18
8	21352	5.44	0.18
8	21372	5.445	0.18
8	21392	5.45	0.18
8	21412	5.455	0.18
8	21432	5.46	0.18
8	21452	5.465	0.18
8	21472	5.47	0.18
8	21492	5.475	0.18
8	21512	5.48	0.18
8	21532	5.485	0.18
8	21552	5.49	0.18
8	21572	5.495	0.18
8	21596	5.5	0.18
8	21616	5.505	0.18
8	21636	5.51	0.18
8	21656	5.515	0.18
8	21676	5.52	0.18
8	21696	5.525	0.18
8	21716	5.53	0.18
8	21736	5.535	0.18
8	21756	5.54	0.18
8	21776	5.545	0.18
8	21796	5.55	0.18
8	21816	5.555	0.18
8	21836	5.56	0.18
8	21856	5.565	0.18
8	21876	5.57	0.18
8	21896	5.575	0.18
8	21916	5.58	0.18
8	21936	5.585	0.18
8	21956	5.59	0.18
8	21976	5.595	0.18
8	21996	5.6	0.18
8	22016	5.605	0.18
8	22036	5.61	0.18
8	22056	5.615	0.18
8	22076	5.62	0.18
8	22096	5.625	0.18
8	22116	5.63	0.18
8	22136	5.635	0.18
8	22156	5.64	0.18
8	22176	5.645	0.18
8	22196	5.65	0.18
8	22216	5.655	0.18
8	22236	5.66	0.18
8	22256	5.665	0.18
8	22276	5.67	0.18
8	22296	5.675	0.18
8	22316	5.68	0.18
8	22336	5.685	0.18
8	22356	5.69	0.18
8	22376	5.695	0.18
8	22396	5.7	0.18
8	22416	5.705	0.18
8	22436	5.71	0.18
8	22456	5.715	0.18
8	22476	5.72	0.18
8	22496	5.725	0.18
8	22516	5.73	0.18
8	22536	5.735	0.18
8	22556	5.74	0.18
8	22576	5.745	0.18
8	22596	5.75	0.18
8	22616	5.755	0.18
8	22636	5.76	0.18
8	22656	5.765	0.18
8	22676	5.77	0.18
8	22696	5.775	0.18
8	22716	5.78	0.18
8	22736	5.785	0.18
8	22756	5.79	0.18
8	22776	5.795	0.18
8	22796	5.8	0.18
8	22816	5.805	0.18
8	22836	5.81	0.18
8	22856	5.815	0.18
8	22876	5.82	0.18
8	22896	5.825	0.18
8	22916	5.83	0.18
8	22936	5.835	0.18
8	22956	5.84	0.18
8	22976	5.845	0.18
8	22996	5.85	0.18
8	23016	5.855	0.18
8	23036	5.86	0.18
8	23056	5.865	0.18
8	23076	5.87	0.18
8	23096	5.875	0.18
8	23116	5.88	0.18
8	23136	5.885	0.18
8	23156	5.89	0.18
8	23176	5.895	0.18
8	23196	5.9	0.18
8	23216	5.905	0.18
8	23236	5.91	0.18
8	23256	5.915	0.18
8	23276	5.92	0.18
8	23296	5.925	0.18
8	23316	5.93	0.18
8	23336	5.935	0.18
8	23356	5.94	0.18
8	23376	5.945	0.18
8	23396	5.95	0.18
8	23416	5.955	0.18
8	23436	5.96	0.18
8	23456	5.965	0.18
8	23476	5.97	0.18
8	23496	5.975	0.18
8	23516	5.98	0.18
8	23536	5.985	0.18
8	23556	5.99	0.18
8	23576	5.995	0.18
8	23600	6	0.18
8	23620	6.005	0.18
8	23640	6.01	0.18
8	23660	6.015	0.18
8	23680	6.02	0.18
8	23700	6.025	0.18
8	23720	6.03	0.18
8	23740	6.035	0.18
8	23760	6.04	0.18
8	23780	6.045	0.18
8	23800	6.05	0.18
8	23820	6.055	0.18
8	23840	6.06	0.18
8	23860	6.065	0.18
8	23880	6.07	0.18
8	23900	6.075	0.18
8	23920	6.08	0.18
8	23940	6.085	0.18
8	23960	6.09	0.18
8	23980	6.095	0.18
8	24000	6.1	0.18
8	24020	6.105	0.18
8	24040	6.11	0.18
8	24060	6.115	0.18
8	24080	6.12	0.18
8	24100	6.125	0.18
8	24120	6.13	0.18
8	24140	6.135	0.18
8	24160	6.14	0.18
8	24180	6.145	0.18
8	24200	6.15	0.18
8	24220	6.155	0.18
8	24240	6.16	0.18
8	24260	6.165	0.18
8	24280	6.17	0.18
8	24300	6.175	0.18
8	24320	6.18	0.18
8	24340	6.185	0.18
8	24360	6.19	0.18
8	24380	6.195	0.18
8	24400	6.2	0.18
8	24420	6.205	0.18
8	24440	6.21	0.18
8	24460	6.215	0.18
8	24480	6.22	0.18
8	24500	6.225	0.18
8	24520	6.23	0.18
8	24540	6.235	0.18
8	24560	6.24	0.18
8	24580	6.245	0.18
8	24600	6.25	0.18
8	24620	6.255	0.18
8	24640	6.26	0.18
8	24660	6.265	0.18
8	24680	6.27	0.18
8	24700	6.275	0.18
8	24720	6.28	0.18
8	24740	6.285	0.18
8	24760	6.29	0.18
8	24780	6.295	0.18
8	24800	6.3	0.18
8	24820	6.305	0.18
8	24840	6.31	0.18
8	24860	6.315	0.18
8	24880	6.32	0.18
8	24900	6.325	0.18
8	24920	6.33	0.18
8	24940	6.335	0.18
8	24960	6.34	0.18
8	24980	6.345	0.18
8	25000	6.35	0.18
8	25020	6.355	0.18
8	25040	6.36	0.18
8	25060	6.365	0.18
8	25080	6.37	0.18
8	25100	6.375	0.18
8	25120	6.38	0.18
8	25140	6.385	0.18
8	25160	6.39	0.18
8	25180	6.395	0.18
8	25200	6.4	0.18
8	25220	6.405	0.18
8	25240	6.41	0.18
8	25260	6.415	0.18
8	25280	6.42	0.18
8	25300	6.425	0.18
8	25320	6.43	0.18
8	25340	6.435	0.18
8	25360	6.44	0.18
8	25380	6.445	0.18
8	25400	6.45	0.18
8	25420	6.455	0.18
8	25440	6.46	0.18
8	25460	6.465	0.18
8	25480	6.47	0.18
8	25500	6.475	0.18
8	25520	6.48	0.18
8	25540	6.485	0.18
8	25560	6.49	0.18
8	25580	6.495	0.18
8	25604	6.5	0.18
8	25624	6.505	0.18
8	25644	6.51	0.18
8	25664	6.515	0.18
8	25684	6.52	0.18
8	25704	6.525	0.18
8	25724	6.53	0.18
8	25744	6.535	0.18
8	25764	6.54	0.18
8	25784	6.545	0.18
8	25804	6.55	0.18
8	25824	6.555	0.18
8	25844	6.56	0.18
8	25864	6.565	0.18
8	25884	6.57	0.18
8	25904	6.575	0.18
8	25924	6.58	0.18
8	25944	6.585	0.18
8	25964	6.59	0.18
8	25984	6.595	0.18
8	26004	6.6	0.18
8	26024	6.605	0.18
8	26044	6.61	0.18
8	26064	6.615	0.18
8	26084	6.62	0.18
8	26104	6.625	0.18
8	26124	6.63	0.18
8	26144	6.635	0.18
8	26164	6.64	0.18
8	26184	6.645	0.18
8	26204	6.65	0.18
8	26224	6.655	0.18
8	26244	6.66	0.18
8	26264	6.665	0.18
8	26284	6.67	0.18
8	26304	6.675	0.18
8	26324	6.68	0.18
8	26344	6.685	0.18
8	26364	6.69	0.18
8	26384	6.695	0.18
8	26404	6.7	0.18
8	26424	6.705	0.18
8	26444	6.71	0.18
8	26464	6.715	0.18
8	26484	6.72	0.18
8	26504	6.725	0.18
8	26524	6.73	0.18
8	26544	6.735	0.18
8	26564	6.74	0.18
8	26584	6.745	0.18
8	26604	6.75	0.18
8	26624	6.755	0.18
8	26644	6.76	0.18
8	26664	6.765	0.18
8	26684	6.77	0.18
8	26704	6.775	0.18
8	26724	6.78	0.18
8	26744	6.785	0.18
8	26764	6.79	0.18
8	26784	6.795	0.18
8	26804	6.8	0.18
8	26824	6.805	0.18
8	26844	6.81	0.18
8	26864	6.815	0.18
8	26884	6.82	0.18
8	26904	6.825	0.18
8	26924	6.83	0.18
8	26944	6.835	0.18
8	26964	6.84	0.18
8	26984	6.845	0.18
8	27004	6.85	0.18
8	27024	6.855	0.18
8	27044	6.86	0.18
8	27064	6.865	0.18
8	27084	6.87	0.18
8	27104	6.875	0.18
8	27124	6.88	0.18
8	27144	6.885	0.18
8	27164	6.89	0.18
8	27184	6.895	0.18
8	27204	6.9	0.18
8	27224	6.905	0.18
8	27244	6.91	0.18
8	27264	6.915	0.18
8	27284	6.92	0.18
8	27304	6.925	0.18
8	27324	6.93	0.18
8	27344	6.935	0.18
8	27364	6.94	0.18
8	27384	6.945	0.18
8	27404	6.95	0.18
8	27424	6.955	0.18
8	27444	6.96	0.18
8	27464	6.965	0.18
8	27484	6.97	0.18
8	27504	6.975	0.18
8	27524	6.98	0.18
8	27544	6.985	0.18
8	27564	6.99	0.18
8	27584	6.995	0.18
8	27608	7	0.18
8	27628	7.005	0.18
8	27648	7.01	0.18
8	27668	7.015	0.18
8	27688	7.02	0.18
8	27708	7.025	0.18
8	27728	7.03	0.18
8	27748	7.035	0.18
8	27768	7.04	0.18
8	27788	7.045	0.18
8	27808	7.05	0.18
8	27828	7.055	0.18
8	27848	7.06	0.18
8	27868	7.065	0.18
8	27888	7.07	0.18
8	27908	7.075	0.18
8	27928	7.08	0.18
8	27948	7.085	0.18
8	27968	7.09	0.18
8	27988	7.095	0.18
8	28008	7.1	0.18
8	28028	7.105	0.18
8	28048	7.11	0.18
8	28068	7.115	0.18
8	28088	7.12	0.18
8	28108	7.125	0.18
8	28128	7.13	0.18
8	28148	7.135	0.18
8	28168	7.14	0.18
8	28188	7.145	0.18
8	28208	7.15	0.18
8	28228	7.155	0.18
8	28248	7.16	0.18
8	28268	7.165	0.18
8	28288	7.17	0.18
8	28308	7.175	0.18
8	28328	7.18	0.18
8	28348	7.185	0.18
8	28368	7.19	0.18
8	28388	7.195	0.18
8	28408	7.2	0.18
8	28428	7.205	0.18
8	28448	7.21	0.18
8	28468	7.215	0.18
8	28488	7.22	0.18
8	28508	7.225	0.18
8	28528	7.23	0.18
8	28548	7.235	0.18
8	28568	7.24	0.18
8	28588	7.245	0.18
8	28608	7.25	0.18
8	28628	7.255	0.18
8	28648	7.26	0.18
8	28668	7.265	0.18
8	28688	7.27	0.18
8	28708	7.275	0.18
8	28728	7.28	0.18
8	28748	7.285	0.18
8	28768	7.29	0.18
8	28788	7.295	0.18
8	28808	7.3	0.18