version 2
run simpleNet-0-20181107-06:40:17-31712
attr configname simpleNet
attr datetime 20181107-06:40:17
attr experiment simpleNet
attr inifile omnetpp.ini
attr iterationvars ""
attr iterationvarsf ""
attr measurement ""
attr network simpleNet
attr processid 31712
attr repetition 0
attr replication #0
attr resultdir results
attr runnumber 0
attr seedset 0

vector 0 simpleNet.node[0] numInQueue:vector ETV
attr interpolationmode none
attr source numInQueue
attr title "total num in queue, vector"
vector 1 simpleNet.node[0] numProcessed:vector ETV
attr interpolationmode none
attr source numProcessed
attr title "num processed in statRate time, vector"
vector 2 simpleNet.node[1] numInQueue:vector ETV
attr interpolationmode none
attr source numInQueue
attr title "total num in queue, vector"
vector 3 simpleNet.node[1] numProcessed:vector ETV
attr interpolationmode none
attr source numProcessed
attr title "num processed in statRate time, vector"
vector 4 simpleNet.node[2] numInQueue:vector ETV
attr interpolationmode none
attr source numInQueue
attr title "total num in queue, vector"
vector 5 simpleNet.node[2] numProcessed:vector ETV
attr interpolationmode none
attr source numProcessed
attr title "num processed in statRate time, vector"
vector 6 simpleNet.node[3] numInQueue:vector ETV
attr interpolationmode none
attr source numInQueue
attr title "total num in queue, vector"
vector 7 simpleNet.node[3] numProcessed:vector ETV
attr interpolationmode none
attr source numProcessed
attr title "num processed in statRate time, vector"
vector 8 simpleNet.node[0] completionTime:vector ETV
attr interpolationmode none
attr source completionTime
attr title "completionTime, vector"
vector 9 simpleNet.node[3] completionTime:vector ETV
attr interpolationmode none
attr source completionTime
attr title "completionTime, vector"
0	2	0	0
0	2305	0.5	0
0	5309	1	0
0	8313	1.5	0
0	11317	2	0
0	14321	2.5	0
0	17325	3	0
0	20329	3.5	0
0	23333	4	0
0	26337	4.5	0
0	29341	5	0
0	32345	5.5	0
0	35349	6	0
0	38353	6.5	0
0	41357	7	0
0	44361	7.5	0
0	47365	8	0
0	50369	8.5	0
0	53373	9	0
0	56377	9.5	0
0	59379	10	0
0	60085	10.5	0
1	2	0	0
1	2305	0.5	201
1	5309	1	300
1	8313	1.5	300
1	11317	2	300
1	14321	2.5	300
1	17325	3	300
1	20329	3.5	300
1	23333	4	300
1	26337	4.5	300
1	29341	5	300
1	32345	5.5	300
1	35349	6	300
1	38353	6.5	300
1	41357	7	300
1	44361	7.5	300
1	47365	8	300
1	50369	8.5	300
1	53373	9	300
1	56377	9.5	300
1	59379	10	300
1	60085	10.5	99
2	3	0	0
2	2306	0.5	0
2	5310	1	0
2	8314	1.5	0
2	11318	2	0
2	14322	2.5	0
2	17326	3	0
2	20330	3.5	0
2	23334	4	0
2	26338	4.5	0
2	29342	5	0
2	32346	5.5	0
2	35350	6	0
2	38354	6.5	0
2	41358	7	0
2	44362	7.5	0
2	47366	8	0
2	50370	8.5	0
2	53374	9	0
2	56378	9.5	0
2	59380	10	0
2	60086	10.5	0
3	3	0	0
3	2306	0.5	402
3	5310	1	600
3	8314	1.5	600
3	11318	2	600
3	14322	2.5	600
3	17326	3	600
3	20330	3.5	600
3	23334	4	600
3	26338	4.5	600
3	29342	5	600
3	32346	5.5	600
3	35350	6	600
3	38354	6.5	600
3	41358	7	600
3	44362	7.5	600
3	47366	8	600
3	50370	8.5	600
3	53374	9	600
3	56378	9.5	600
3	59380	10	600
3	60086	10.5	198
4	4	0	0
4	2307	0.5	0
4	5311	1	0
4	8315	1.5	0
4	11319	2	0
4	14323	2.5	0
4	17327	3	0
4	20331	3.5	0
4	23335	4	0
4	26339	4.5	0
4	29343	5	0
4	32347	5.5	0
4	35351	6	0
4	38355	6.5	0
4	41359	7	0
4	44363	7.5	0
4	47367	8	0
4	50371	8.5	0
4	53375	9	0
4	56379	9.5	0
4	59381	10	0
4	60087	10.5	0
5	4	0	0
5	2307	0.5	402
5	5311	1	600
5	8315	1.5	600
5	11319	2	600
5	14323	2.5	600
5	17327	3	600
5	20331	3.5	600
5	23335	4	600
5	26339	4.5	600
5	29343	5	600
5	32347	5.5	600
5	35351	6	600
5	38355	6.5	600
5	41359	7	600
5	44363	7.5	600
5	47367	8	600
5	50371	8.5	600
5	53375	9	600
5	56379	9.5	600
5	59381	10	600
5	60087	10.5	198
6	6	0	0
6	2308	0.5	0
6	5312	1	0
6	8316	1.5	0
6	11320	2	0
6	14324	2.5	0
6	17328	3	0
6	20332	3.5	0
6	23336	4	0
6	26340	4.5	0
6	29344	5	0
6	32348	5.5	0
6	35352	6	0
6	38356	6.5	0
6	41360	7	0
6	44364	7.5	0
6	47368	8	0
6	50372	8.5	0
6	53376	9	0
6	56380	9.5	0
6	59382	10	0
6	60088	10.5	0
7	6	0	0
7	2308	0.5	201
7	5312	1	300
7	8316	1.5	300
7	11320	2	300
7	14324	2.5	300
7	17328	3	300
7	20332	3.5	300
7	23336	4	300
7	26340	4.5	300
7	29344	5	300
7	32348	5.5	300
7	35352	6	300
7	38356	6.5	300
7	41360	7	300
7	44364	7.5	300
7	47368	8	300
7	50372	8.5	300
7	53376	9	300
7	56380	9.5	300
7	59382	10	300
7	60088	10.5	99
8	416	0.18	0.18
8	434	0.183333333333	0.18
8	452	0.186666666667	0.18
8	470	0.19	0.18
8	488	0.193333333333	0.18
8	506	0.196666666667	0.18
8	524	0.2	0.18
8	542	0.203333333333	0.18
8	560	0.206666666667	0.18
8	578	0.21	0.18
8	598	0.213333333333	0.18
8	618	0.216666666667	0.18
8	638	0.22	0.18
8	658	0.223333333333	0.18
8	678	0.226666666667	0.18
8	698	0.23	0.18
8	718	0.233333333333	0.18
8	738	0.236666666667	0.18
8	758	0.24	0.18
8	778	0.243333333333	0.18
8	798	0.246666666667	0.18
8	818	0.25	0.18
8	838	0.253333333333	0.18
8	858	0.256666666667	0.18
8	878	0.26	0.18
8	898	0.263333333333	0.18
8	918	0.266666666667	0.18
8	938	0.27	0.18
8	958	0.273333333333	0.18
8	978	0.276666666667	0.18
8	998	0.28	0.18
8	1018	0.283333333333	0.18
8	1038	0.286666666667	0.18
8	1058	0.29	0.18
8	1078	0.293333333333	0.18
8	1098	0.296666666667	0.18
8	1118	0.3	0.18
8	1138	0.303333333333	0.18
8	1158	0.306666666667	0.18
8	1178	0.31	0.18
8	1198	0.313333333333	0.18
8	1218	0.316666666667	0.18
8	1238	0.32	0.18
8	1258	0.323333333333	0.18
8	1278	0.326666666667	0.18
8	1298	0.33	0.18
8	1318	0.333333333333	0.18
8	1338	0.336666666667	0.18
8	1358	0.34	0.18
8	1378	0.343333333333	0.18
8	1398	0.346666666667	0.18
8	1418	0.35	0.18
8	1438	0.353333333333	0.18
8	1458	0.356666666667	0.18
8	1478	0.36	0.18
8	1498	0.363333333333	0.18
8	1518	0.366666666667	0.18
8	1538	0.37	0.18
8	1558	0.373333333333	0.18
8	1578	0.376666666667	0.18
8	1598	0.38	0.18
8	1618	0.383333333333	0.18
8	1638	0.386666666667	0.18
8	1658	0.39	0.18
8	1678	0.393333333333	0.18
8	1698	0.396666666667	0.18
8	1718	0.4	0.18
8	1738	0.403333333333	0.18
8	1758	0.406666666667	0.18
8	1778	0.41	0.18
8	1798	0.413333333333	0.18
8	1818	0.416666666667	0.18
8	1838	0.42	0.18
8	1858	0.423333333333	0.18
8	1878	0.426666666667	0.18
8	1898	0.43	0.18
8	1918	0.433333333333	0.18
8	1938	0.436666666667	0.18
8	1958	0.44	0.18
8	1978	0.443333333333	0.18
8	1998	0.446666666667	0.18
8	2018	0.45	0.18
8	2038	0.453333333333	0.18
8	2058	0.456666666667	0.18
8	2078	0.46	0.18
8	2098	0.463333333333	0.18
8	2118	0.466666666667	0.18
8	2138	0.47	0.18
8	2158	0.473333333333	0.18
8	2178	0.476666666667	0.18
8	2198	0.48	0.18
8	2218	0.483333333333	0.18
8	2238	0.486666666667	0.18
8	2258	0.49	0.18
8	2278	0.493333333333	0.18
8	2298	0.496666666667	0.18
8	2322	0.5	0.18
8	2342	0.503333333333	0.18
8	2362	0.506666666667	0.18
8	2382	0.51	0.18
8	2402	0.513333333333	0.18
8	2422	0.516666666667	0.18
8	2442	0.52	0.18
8	2462	0.523333333333	0.18
8	2482	0.526666666667	0.18
8	2502	0.53	0.18
8	2522	0.533333333333	0.18
8	2542	0.536666666667	0.18
8	2562	0.54	0.18
8	2582	0.543333333333	0.18
8	2602	0.546666666667	0.18
8	2622	0.55	0.18
8	2642	0.553333333333	0.18
8	2662	0.556666666667	0.18
8	2682	0.56	0.18
8	2702	0.563333333333	0.18
8	2722	0.566666666667	0.18
8	2742	0.57	0.18
8	2762	0.573333333333	0.18
8	2782	0.576666666667	0.18
8	2802	0.58	0.18
8	2822	0.583333333333	0.18
8	2842	0.586666666667	0.18
8	2862	0.59	0.18
8	2882	0.593333333333	0.18
8	2902	0.596666666667	0.18
8	2922	0.6	0.18
8	2942	0.603333333333	0.18
8	2962	0.606666666667	0.18
8	2982	0.61	0.18
8	3002	0.613333333333	0.18
8	3022	0.616666666667	0.18
8	3042	0.62	0.18
8	3062	0.623333333333	0.18
8	3082	0.626666666667	0.18
8	3102	0.63	0.18
8	3122	0.633333333333	0.18
8	3142	0.636666666667	0.18
8	3162	0.64	0.18
8	3182	0.643333333333	0.18
8	3202	0.646666666667	0.18
8	3222	0.65	0.18
8	3242	0.653333333333	0.18
8	3262	0.656666666667	0.18
8	3282	0.66	0.18
8	3302	0.663333333333	0.18
8	3322	0.666666666667	0.18
8	3342	0.67	0.18
8	3362	0.673333333333	0.18
8	3382	0.676666666667	0.18
8	3402	0.68	0.18
8	3422	0.683333333333	0.18
8	3442	0.686666666667	0.18
8	3462	0.69	0.18
8	3482	0.693333333333	0.18
8	3502	0.696666666667	0.18
8	3522	0.7	0.18
8	3542	0.703333333333	0.18
8	3562	0.706666666667	0.18
8	3582	0.71	0.18
8	3602	0.713333333333	0.18
8	3622	0.716666666667	0.18
8	3642	0.72	0.18
8	3662	0.723333333333	0.18
8	3682	0.726666666667	0.18
8	3702	0.73	0.18
8	3722	0.733333333333	0.18
8	3742	0.736666666667	0.18
8	3762	0.74	0.18
8	3782	0.743333333333	0.18
8	3802	0.746666666667	0.18
8	3822	0.75	0.18
8	3842	0.753333333333	0.18
8	3862	0.756666666667	0.18
8	3882	0.76	0.18
8	3902	0.763333333333	0.18
8	3922	0.766666666667	0.18
8	3942	0.77	0.18
8	3962	0.773333333333	0.18
8	3982	0.776666666667	0.18
8	4002	0.78	0.18
8	4022	0.783333333333	0.18
8	4042	0.786666666667	0.18
8	4062	0.79	0.18
8	4082	0.793333333333	0.18
8	4102	0.796666666667	0.18
8	4122	0.8	0.18
8	4142	0.803333333333	0.18
8	4162	0.806666666667	0.18
8	4182	0.81	0.18
8	4202	0.813333333333	0.18
8	4222	0.816666666667	0.18
8	4242	0.82	0.18
8	4262	0.823333333333	0.18
8	4282	0.826666666667	0.18
8	4302	0.83	0.18
8	4322	0.833333333333	0.18
8	4342	0.836666666667	0.18
8	4362	0.84	0.18
8	4382	0.843333333333	0.18
8	4402	0.846666666667	0.18
8	4422	0.85	0.18
8	4442	0.853333333333	0.18
8	4462	0.856666666667	0.18
8	4482	0.86	0.18
8	4502	0.863333333333	0.18
8	4522	0.866666666667	0.18
8	4542	0.87	0.18
8	4562	0.873333333333	0.18
8	4582	0.876666666667	0.18
8	4602	0.88	0.18
8	4622	0.883333333333	0.18
8	4642	0.886666666667	0.18
8	4662	0.89	0.18
8	4682	0.893333333333	0.18
8	4702	0.896666666667	0.18
8	4722	0.9	0.18
8	4742	0.903333333333	0.18
8	4762	0.906666666667	0.18
8	4782	0.91	0.18
8	4802	0.913333333333	0.18
8	4822	0.916666666667	0.18
8	4842	0.92	0.18
8	4862	0.923333333333	0.18
8	4882	0.926666666667	0.18
8	4902	0.93	0.18
8	4922	0.933333333333	0.18
8	4942	0.936666666667	0.18
8	4962	0.94	0.18
8	4982	0.943333333333	0.18
8	5002	0.946666666667	0.18
8	5022	0.95	0.18
8	5042	0.953333333333	0.18
8	5062	0.956666666667	0.18
8	5082	0.96	0.18
8	5102	0.963333333333	0.18
8	5122	0.966666666667	0.18
8	5142	0.97	0.18
8	5162	0.973333333333	0.18
8	5182	0.976666666667	0.18
8	5202	0.98	0.18
8	5222	0.983333333333	0.18
8	5242	0.986666666667	0.18
8	5262	0.99	0.18
8	5282	0.993333333333	0.18
8	5302	0.996666666667	0.18
8	5326	1	0.18
8	5346	1.003333333333	0.18
8	5364	1.006666666667	0.18
8	5386	1.01	0.18
8	5406	1.013333333333	0.18
8	5424	1.016666666667	0.18
8	5446	1.02	0.18
8	5466	1.023333333333	0.18
8	5484	1.026666666667	0.18
8	5506	1.03	0.18
8	5526	1.033333333333	0.18
8	5542	1.036666666667	0.18
8	5566	1.04	0.18
8	5586	1.043333333333	0.18
8	5602	1.046666666667	0.18
8	5626	1.05	0.18
8	5646	1.053333333333	0.18
8	5662	1.056666666667	0.18
8	5686	1.06	0.18
8	5706	1.063333333333	0.18
8	5720	1.066666666667	0.18
8	5746	1.07	0.18
8	5766	1.073333333333	0.18
8	5780	1.076666666667	0.18
8	5806	1.08	0.18
8	5826	1.083333333333	0.18
8	5840	1.086666666667	0.18
8	5866	1.09	0.18
8	5886	1.093333333333	0.18
8	5898	1.096666666667	0.18
8	5926	1.1	0.18
8	5946	1.103333333333	0.18
8	5958	1.106666666667	0.18
8	5986	1.11	0.18
8	6006	1.113333333333	0.18
8	6018	1.116666666667	0.18
8	6046	1.12	0.18
8	6066	1.123333333333	0.18
8	6076	1.126666666667	0.18
8	6106	1.13	0.18
8	6126	1.133333333333	0.18
8	6136	1.136666666667	0.18
8	6166	1.14	0.18
8	6186	1.143333333333	0.18
8	6196	1.146666666667	0.18
8	6226	1.15	0.18
8	6246	1.153333333333	0.18
8	6252	1.156666666667	0.18
8	6286	1.16	0.18
8	6306	1.163333333333	0.18
8	6312	1.166666666667	0.18
8	6346	1.17	0.18
8	6366	1.173333333333	0.18
8	6372	1.176666666667	0.18
8	6406	1.18	0.18
8	6426	1.18333333333	0.18
8	6448	1.18666666667	0.18
8	6466	1.19	0.18
8	6486	1.19333333333	0.18
8	6508	1.19666666667	0.18
8	6526	1.2	0.18
8	6546	1.20333333333	0.18
8	6568	1.20666666667	0.18
8	6586	1.21	0.18
8	6606	1.21333333333	0.18
8	6626	1.21666666667	0.18
8	6646	1.22	0.18
8	6666	1.22333333333	0.18
8	6686	1.22666666667	0.18
8	6706	1.23	0.18
8	6726	1.23333333333	0.18
8	6746	1.23666666667	0.18
8	6766	1.24	0.18
8	6786	1.24333333333	0.18
8	6806	1.24666666667	0.18
8	6826	1.25	0.18
8	6846	1.25333333333	0.18
8	6866	1.25666666667	0.18
8	6886	1.26	0.18
8	6906	1.26333333333	0.18
8	6926	1.26666666667	0.18
8	6946	1.27	0.18
8	6966	1.27333333333	0.18
8	6986	1.27666666667	0.18
8	7006	1.28	0.18
8	7026	1.28333333333	0.18
8	7046	1.28666666667	0.18
8	7066	1.29	0.18
8	7086	1.29333333333	0.18
8	7106	1.29666666667	0.18
8	7126	1.3	0.18
8	7146	1.30333333333	0.18
8	7166	1.30666666667	0.18
8	7186	1.31	0.18
8	7206	1.31333333333	0.18
8	7226	1.31666666667	0.18
8	7246	1.32	0.18
8	7266	1.32333333333	0.18
8	7286	1.32666666667	0.18
8	7306	1.33	0.18
8	7326	1.33333333333	0.18
8	7346	1.33666666667	0.18
8	7366	1.34	0.18
8	7386	1.34333333333	0.18
8	7406	1.34666666667	0.18
8	7426	1.35	0.18
8	7446	1.35333333333	0.18
8	7466	1.35666666667	0.18
8	7486	1.36	0.18
8	7506	1.36333333333	0.18
8	7526	1.36666666667	0.18
8	7546	1.37	0.18
8	7566	1.37333333333	0.18
8	7586	1.37666666667	0.18
8	7606	1.38	0.18
8	7626	1.38333333333	0.18
8	7646	1.38666666667	0.18
8	7666	1.39	0.18
8	7686	1.39333333333	0.18
8	7706	1.39666666667	0.18
8	7726	1.4	0.18
8	7746	1.40333333333	0.18
8	7766	1.40666666667	0.18
8	7786	1.41	0.18
8	7806	1.41333333333	0.18
8	7826	1.41666666667	0.18
8	7846	1.42	0.18
8	7866	1.42333333333	0.18
8	7886	1.42666666667	0.18
8	7906	1.43	0.18
8	7926	1.43333333333	0.18
8	7946	1.43666666667	0.18
8	7966	1.44	0.18
8	7986	1.44333333333	0.18
8	8006	1.44666666667	0.18
8	8026	1.45	0.18
8	8046	1.45333333333	0.18
8	8066	1.45666666667	0.18
8	8086	1.46	0.18
8	8106	1.46333333333	0.18
8	8126	1.46666666667	0.18
8	8146	1.47	0.18
8	8166	1.47333333333	0.18
8	8186	1.47666666667	0.18
8	8206	1.48	0.18
8	8226	1.48333333333	0.18
8	8246	1.48666666667	0.18
8	8266	1.49	0.18
8	8286	1.49333333333	0.18
8	8306	1.49666666667	0.18
8	8330	1.5	0.18
8	8350	1.50333333333	0.18
8	8370	1.50666666667	0.18
8	8390	1.51	0.18
8	8410	1.51333333333	0.18
8	8430	1.51666666667	0.18
8	8450	1.52	0.18
8	8470	1.52333333333	0.18
8	8490	1.52666666667	0.18
8	8510	1.53	0.18
8	8530	1.53333333333	0.18
8	8550	1.53666666667	0.18
8	8570	1.54	0.18
8	8590	1.54333333333	0.18
8	8610	1.54666666667	0.18
8	8630	1.55	0.18
8	8650	1.55333333333	0.18
8	8670	1.55666666667	0.18
8	8690	1.56	0.18
8	8710	1.56333333333	0.18
8	8730	1.56666666667	0.18
8	8750	1.57	0.18
8	8770	1.57333333333	0.18
8	8790	1.57666666667	0.18
8	8810	1.58	0.18
8	8830	1.58333333333	0.18
8	8850	1.58666666667	0.18
8	8870	1.59	0.18
8	8890	1.59333333333	0.18
8	8910	1.59666666667	0.18
8	8930	1.6	0.18
8	8950	1.60333333333	0.18
8	8970	1.60666666667	0.18
8	8990	1.61	0.18
8	9010	1.61333333333	0.18
8	9030	1.61666666667	0.18
8	9050	1.62	0.18
8	9070	1.62333333333	0.18
8	9090	1.62666666667	0.18
8	9110	1.63	0.18
8	9130	1.63333333333	0.18
8	9150	1.63666666667	0.18
8	9170	1.64	0.18
8	9190	1.64333333333	0.18
8	9210	1.64666666667	0.18
8	9230	1.65	0.18
8	9250	1.65333333333	0.18
8	9270	1.65666666667	0.18
8	9290	1.66	0.18
8	9310	1.66333333333	0.18
8	9330	1.66666666667	0.18
8	9350	1.67	0.18
8	9370	1.67333333333	0.18
8	9390	1.67666666667	0.18
8	9410	1.68	0.18
8	9430	1.68333333333	0.18
8	9450	1.68666666667	0.18
8	9470	1.69	0.18
8	9490	1.69333333333	0.18
8	9510	1.69666666667	0.18
8	9530	1.7	0.18
8	9550	1.70333333333	0.18
8	9570	1.70666666667	0.18
8	9590	1.71	0.18
8	9610	1.71333333333	0.18
8	9630	1.71666666667	0.18
8	9650	1.72	0.18
8	9670	1.72333333333	0.18
8	9690	1.72666666667	0.18
8	9710	1.73	0.18
8	9730	1.73333333333	0.18
8	9750	1.73666666667	0.18
8	9770	1.74	0.18
8	9790	1.74333333333	0.18
8	9810	1.74666666667	0.18
8	9830	1.75	0.18
8	9850	1.75333333333	0.18
8	9870	1.75666666667	0.18
8	9890	1.76	0.18
8	9910	1.76333333333	0.18
8	9930	1.76666666667	0.18
8	9950	1.77	0.18
8	9970	1.77333333333	0.18
8	9990	1.77666666667	0.18
8	10010	1.78	0.18
8	10030	1.78333333333	0.18
8	10050	1.78666666667	0.18
8	10070	1.79	0.18
8	10090	1.79333333333	0.18
8	10110	1.79666666667	0.18
8	10130	1.8	0.18
8	10150	1.80333333333	0.18
8	10170	1.80666666667	0.18
8	10190	1.81	0.18
8	10210	1.81333333333	0.18
8	10230	1.81666666667	0.18
8	10250	1.82	0.18
8	10270	1.82333333333	0.18
8	10290	1.82666666667	0.18
8	10310	1.83	0.18
8	10330	1.83333333333	0.18
8	10350	1.83666666667	0.18
8	10370	1.84	0.18
8	10390	1.84333333333	0.18
8	10410	1.84666666667	0.18
8	10430	1.85	0.18
8	10450	1.85333333333	0.18
8	10470	1.85666666667	0.18
8	10490	1.86	0.18
8	10510	1.86333333333	0.18
8	10530	1.86666666667	0.18
8	10550	1.87	0.18
8	10570	1.87333333333	0.18
8	10590	1.87666666667	0.18
8	10610	1.88	0.18
8	10630	1.88333333333	0.18
8	10650	1.88666666667	0.18
8	10670	1.89	0.18
8	10690	1.89333333333	0.18
8	10710	1.89666666667	0.18
8	10730	1.9	0.18
8	10750	1.90333333333	0.18
8	10770	1.90666666667	0.18
8	10790	1.91	0.18
8	10810	1.91333333333	0.18
8	10830	1.91666666667	0.18
8	10850	1.92	0.18
8	10870	1.92333333333	0.18
8	10890	1.92666666667	0.18
8	10910	1.93	0.18
8	10930	1.93333333333	0.18
8	10950	1.93666666667	0.18
8	10970	1.94	0.18
8	10990	1.94333333333	0.18
8	11010	1.94666666667	0.18
8	11030	1.95	0.18
8	11050	1.95333333333	0.18
8	11070	1.95666666667	0.18
8	11090	1.96	0.18
8	11110	1.96333333333	0.18
8	11130	1.96666666667	0.18
8	11150	1.97	0.18
8	11170	1.97333333333	0.18
8	11190	1.97666666667	0.18
8	11210	1.98	0.18
8	11230	1.98333333333	0.18
8	11250	1.98666666667	0.18
8	11270	1.99	0.18
8	11290	1.99333333333	0.18
8	11310	1.99666666667	0.18
8	11334	2	0.18
8	11354	2.00333333333	0.18
8	11374	2.00666666667	0.18
8	11394	2.01	0.18
8	11414	2.01333333333	0.18
8	11434	2.01666666667	0.18
8	11454	2.02	0.18
8	11474	2.02333333333	0.18
8	11494	2.02666666667	0.18
8	11514	2.03	0.18
8	11534	2.03333333333	0.18
8	11554	2.03666666667	0.18
8	11574	2.04	0.18
8	11594	2.04333333333	0.18
8	11614	2.04666666667	0.18
8	11634	2.05	0.18
8	11654	2.05333333333	0.18
8	11674	2.05666666667	0.18
8	11694	2.06	0.18
8	11714	2.06333333333	0.18
8	11734	2.06666666667	0.18
8	11754	2.07	0.18
8	11774	2.07333333333	0.18
8	11794	2.07666666667	0.18
8	11814	2.08	0.18
8	11834	2.08333333333	0.18
8	11854	2.08666666667	0.18
8	11874	2.09	0.18
8	11894	2.09333333333	0.18
8	11914	2.09666666667	0.18
8	11934	2.1	0.18
8	11954	2.10333333333	0.18
8	11974	2.10666666667	0.18
8	11994	2.11	0.18
8	12014	2.11333333333	0.18
8	12034	2.11666666667	0.18
8	12054	2.12	0.18
8	12074	2.12333333333	0.18
8	12094	2.12666666667	0.18
8	12114	2.13	0.18
8	12134	2.13333333333	0.18
8	12154	2.13666666667	0.18
8	12174	2.14	0.18
8	12194	2.14333333333	0.18
8	12214	2.14666666667	0.18
8	12234	2.15	0.18
8	12254	2.15333333333	0.18
8	12274	2.15666666667	0.18
8	12294	2.16	0.18
8	12314	2.16333333333	0.18
8	12334	2.16666666667	0.18
8	12354	2.17	0.18
8	12374	2.17333333333	0.18
8	12394	2.17666666667	0.18
8	12414	2.18	0.18
8	12434	2.18333333333	0.18
8	12454	2.18666666667	0.18
8	12474	2.19	0.18
8	12494	2.19333333333	0.18
8	12514	2.19666666667	0.18
8	12534	2.2	0.18
8	12554	2.20333333333	0.18
8	12574	2.20666666667	0.18
8	12594	2.21	0.18
8	12614	2.21333333333	0.18
8	12634	2.21666666667	0.18
8	12654	2.22	0.18
8	12674	2.22333333333	0.18
8	12694	2.22666666667	0.18
8	12714	2.23	0.18
8	12734	2.23333333333	0.18
8	12754	2.23666666667	0.18
8	12774	2.24	0.18
8	12794	2.24333333333	0.18
8	12814	2.24666666667	0.18
8	12834	2.25	0.18
8	12854	2.25333333333	0.18
8	12874	2.25666666667	0.18
8	12894	2.26	0.18
8	12914	2.26333333333	0.18
8	12934	2.26666666667	0.18
8	12954	2.27	0.18
8	12974	2.27333333333	0.18
8	12994	2.27666666667	0.18
8	13014	2.28	0.18
8	13034	2.28333333333	0.18
8	13054	2.28666666667	0.18
8	13074	2.29	0.18
8	13094	2.29333333333	0.18
8	13114	2.29666666667	0.18
8	13134	2.3	0.18
8	13154	2.30333333333	0.18
8	13174	2.30666666667	0.18
8	13194	2.31	0.18
8	13214	2.31333333333	0.18
8	13234	2.31666666667	0.18
8	13254	2.32	0.18
8	13274	2.32333333333	0.18
8	13294	2.32666666667	0.18
8	13314	2.33	0.18
8	13334	2.33333333333	0.18
8	13354	2.33666666667	0.18
8	13374	2.34	0.18
8	13394	2.34333333333	0.18
8	13414	2.34666666667	0.18
8	13434	2.35	0.18
8	13454	2.35333333333	0.18
8	13474	2.35666666667	0.18
8	13494	2.36	0.18
8	13514	2.36333333333	0.18
8	13534	2.36666666667	0.18
8	13554	2.37	0.18
8	13574	2.37333333333	0.18
8	13594	2.37666666667	0.18
8	13614	2.38	0.18
8	13634	2.38333333333	0.18
8	13654	2.38666666667	0.18
8	13674	2.39	0.18
8	13694	2.39333333333	0.18
8	13714	2.39666666667	0.18
8	13734	2.4	0.18
8	13754	2.40333333333	0.18
8	13774	2.40666666667	0.18
8	13794	2.41	0.18
8	13814	2.41333333333	0.18
8	13834	2.41666666667	0.18
8	13854	2.42	0.18
8	13874	2.42333333333	0.18
8	13894	2.42666666667	0.18
8	13914	2.43	0.18
8	13934	2.43333333333	0.18
8	13954	2.43666666667	0.18
8	13974	2.44	0.18
8	13994	2.44333333333	0.18
8	14014	2.44666666667	0.18
8	14034	2.45	0.18
8	14054	2.45333333333	0.18
8	14074	2.45666666667	0.18
8	14094	2.46	0.18
8	14114	2.46333333333	0.18
8	14134	2.46666666667	0.18
8	14154	2.47	0.18
8	14174	2.47333333333	0.18
8	14194	2.47666666667	0.18
8	14214	2.48	0.18
8	14234	2.48333333333	0.18
8	14254	2.48666666667	0.18
8	14274	2.49	0.18
8	14294	2.49333333333	0.18
8	14314	2.49666666667	0.18
8	14338	2.5	0.18
8	14358	2.50333333333	0.18
8	14378	2.50666666667	0.18
8	14398	2.51	0.18
8	14418	2.51333333333	0.18
8	14438	2.51666666667	0.18
8	14458	2.52	0.18
8	14478	2.52333333333	0.18
8	14498	2.52666666667	0.18
8	14518	2.53	0.18
8	14538	2.53333333333	0.18
8	14558	2.53666666667	0.18
8	14578	2.54	0.18
8	14598	2.54333333333	0.18
8	14618	2.54666666667	0.18
8	14638	2.55	0.18
8	14658	2.55333333333	0.18
8	14678	2.55666666667	0.18
8	14698	2.56	0.18
8	14718	2.56333333333	0.18
8	14738	2.56666666667	0.18
8	14758	2.57	0.18
8	14778	2.57333333333	0.18
8	14798	2.57666666667	0.18
8	14818	2.58	0.18
8	14838	2.58333333333	0.18
8	14858	2.58666666667	0.18
8	14878	2.59	0.18
8	14898	2.59333333333	0.18
8	14918	2.59666666667	0.18
8	14938	2.6	0.18
8	14958	2.60333333333	0.18
8	14978	2.60666666667	0.18
8	14998	2.61	0.18
8	15018	2.61333333333	0.18
8	15038	2.61666666667	0.18
8	15058	2.62	0.18
8	15078	2.62333333333	0.18
8	15098	2.62666666667	0.18
8	15118	2.63	0.18
8	15138	2.63333333333	0.18
8	15158	2.63666666667	0.18
8	15178	2.64	0.18
8	15198	2.64333333333	0.18
8	15218	2.64666666667	0.18
8	15238	2.65	0.18
8	15258	2.65333333333	0.18
8	15278	2.65666666667	0.18
8	15298	2.66	0.18
8	15318	2.66333333333	0.18
8	15338	2.66666666667	0.18
8	15358	2.67	0.18
8	15378	2.67333333333	0.18
8	15398	2.67666666667	0.18
8	15418	2.68	0.18
8	15438	2.68333333333	0.18
8	15458	2.68666666667	0.18
8	15478	2.69	0.18
8	15498	2.69333333333	0.18
8	15518	2.69666666667	0.18
8	15538	2.7	0.18
8	15558	2.70333333333	0.18
8	15578	2.70666666667	0.18
8	15598	2.71	0.18
8	15618	2.71333333333	0.18
8	15638	2.71666666667	0.18
8	15658	2.72	0.18
8	15678	2.72333333333	0.18
8	15698	2.72666666667	0.18
8	15718	2.73	0.18
8	15738	2.73333333333	0.18
8	15758	2.73666666667	0.18
8	15778	2.74	0.18
8	15798	2.74333333333	0.18
8	15818	2.74666666667	0.18
8	15838	2.75	0.18
8	15858	2.75333333333	0.18
8	15878	2.75666666667	0.18
8	15898	2.76	0.18
8	15918	2.76333333333	0.18
8	15938	2.76666666667	0.18
8	15958	2.77	0.18
8	15978	2.77333333333	0.18
8	15998	2.77666666667	0.18
8	16018	2.78	0.18
8	16038	2.78333333333	0.18
8	16058	2.78666666667	0.18
8	16078	2.79	0.18
8	16098	2.79333333333	0.18
8	16118	2.79666666667	0.18
8	16138	2.8	0.18
8	16158	2.80333333333	0.18
8	16178	2.80666666667	0.18
8	16198	2.81	0.18
8	16218	2.81333333333	0.18
8	16238	2.81666666667	0.18
8	16258	2.82	0.18
8	16278	2.82333333333	0.18
8	16298	2.82666666667	0.18
8	16318	2.83	0.18
8	16338	2.83333333333	0.18
8	16358	2.83666666667	0.18
8	16378	2.84	0.18
8	16398	2.84333333333	0.18
8	16418	2.84666666667	0.18
8	16438	2.85	0.18
8	16458	2.85333333333	0.18
8	16478	2.85666666667	0.18
8	16498	2.86	0.18
8	16518	2.86333333333	0.18
8	16538	2.86666666667	0.18
8	16558	2.87	0.18
8	16578	2.87333333333	0.18
8	16598	2.87666666667	0.18
8	16618	2.88	0.18
8	16638	2.88333333333	0.18
8	16658	2.88666666667	0.18
8	16678	2.89	0.18
8	16698	2.89333333333	0.18
8	16718	2.89666666667	0.18
8	16738	2.9	0.18
8	16758	2.90333333333	0.18
8	16778	2.90666666667	0.18
8	16798	2.91	0.18
8	16818	2.91333333333	0.18
8	16838	2.91666666667	0.18
8	16858	2.92	0.18
8	16878	2.92333333333	0.18
8	16898	2.92666666667	0.18
8	16918	2.93	0.18
8	16938	2.93333333333	0.18
8	16958	2.93666666667	0.18
8	16978	2.94	0.18
8	16998	2.94333333333	0.18
8	17018	2.94666666667	0.18
8	17038	2.95	0.18
8	17058	2.95333333333	0.18
8	17078	2.95666666667	0.18
8	17098	2.96	0.18
8	17118	2.96333333333	0.18
8	17138	2.96666666667	0.18
8	17158	2.97	0.18
8	17178	2.97333333333	0.18
8	17198	2.97666666667	0.18
8	17218	2.98	0.18
8	17238	2.98333333333	0.18
8	17258	2.98666666667	0.18
8	17278	2.99	0.18
8	17298	2.99333333333	0.18
8	17318	2.99666666667	0.18
8	17342	3	0.18
8	17362	3.00333333333	0.18
8	17382	3.00666666667	0.18
8	17402	3.01	0.18
8	17422	3.01333333333	0.18
8	17442	3.01666666667	0.18
8	17462	3.02	0.18
8	17482	3.02333333333	0.18
8	17502	3.02666666667	0.18
8	17522	3.03	0.18
8	17542	3.03333333333	0.18
8	17562	3.03666666667	0.18
8	17582	3.04	0.18
8	17602	3.04333333333	0.18
8	17622	3.04666666667	0.18
8	17642	3.05	0.18
8	17662	3.05333333333	0.18
8	17682	3.05666666667	0.18
8	17702	3.06	0.18
8	17722	3.06333333333	0.18
8	17742	3.06666666667	0.18
8	17762	3.07	0.18
8	17782	3.07333333333	0.18
8	17802	3.07666666667	0.18
8	17822	3.08	0.18
8	17842	3.08333333333	0.18
8	17862	3.08666666667	0.18
8	17882	3.09	0.18
8	17902	3.09333333333	0.18
8	17922	3.09666666667	0.18
8	17942	3.1	0.18
8	17962	3.10333333333	0.18
8	17982	3.10666666667	0.18
8	18002	3.11	0.18
8	18022	3.11333333333	0.18
8	18042	3.11666666667	0.18
8	18062	3.12	0.18
8	18082	3.12333333333	0.18
8	18102	3.12666666667	0.18
8	18122	3.13	0.18
8	18142	3.13333333333	0.18
8	18162	3.13666666667	0.18
8	18182	3.14	0.18
8	18202	3.14333333333	0.18
8	18222	3.14666666667	0.18
8	18242	3.15	0.18
8	18262	3.15333333333	0.18
8	18282	3.15666666667	0.18
8	18302	3.16	0.18
8	18322	3.16333333333	0.18
8	18342	3.16666666667	0.18
8	18362	3.17	0.18
8	18382	3.17333333333	0.18
8	18402	3.17666666667	0.18
8	18422	3.18	0.18
8	18442	3.18333333333	0.18
8	18462	3.18666666667	0.18
8	18482	3.19	0.18
8	18502	3.19333333333	0.18
8	18522	3.19666666667	0.18
8	18542	3.2	0.18
8	18562	3.20333333333	0.18
8	18582	3.20666666667	0.18
8	18602	3.21	0.18
8	18622	3.21333333333	0.18
8	18642	3.21666666667	0.18
8	18662	3.22	0.18
8	18682	3.22333333333	0.18
8	18702	3.22666666667	0.18
8	18722	3.23	0.18
8	18742	3.23333333333	0.18
8	18762	3.23666666667	0.18
8	18782	3.24	0.18
8	18802	3.24333333333	0.18
8	18822	3.24666666667	0.18
8	18842	3.25	0.18
8	18862	3.25333333333	0.18
8	18882	3.25666666667	0.18
8	18902	3.26	0.18
8	18922	3.26333333333	0.18
8	18942	3.26666666667	0.18
8	18962	3.27	0.18
8	18982	3.27333333333	0.18
8	19002	3.27666666667	0.18
8	19022	3.28	0.18
8	19042	3.28333333333	0.18
8	19062	3.28666666667	0.18
8	19082	3.29	0.18
8	19102	3.29333333333	0.18
8	19122	3.29666666667	0.18
8	19142	3.3	0.18
8	19162	3.30333333333	0.18
8	19182	3.30666666667	0.18
8	19202	3.31	0.18
8	19222	3.31333333333	0.18
8	19242	3.31666666667	0.18
8	19262	3.32	0.18
8	19282	3.32333333333	0.18
8	19302	3.32666666667	0.18
8	19322	3.33	0.18
8	19342	3.33333333333	0.18
8	19362	3.33666666667	0.18
8	19382	3.34	0.18
8	19402	3.34333333333	0.18
8	19422	3.34666666667	0.18
8	19442	3.35	0.18
8	19462	3.35333333333	0.18
8	19482	3.35666666667	0.18
8	19502	3.36	0.18
8	19522	3.36333333333	0.18
8	19542	3.36666666667	0.18
8	19562	3.37	0.18
8	19582	3.37333333333	0.18
8	19602	3.37666666667	0.18
8	19622	3.38	0.18
8	19642	3.38333333333	0.18
8	19662	3.38666666667	0.18
8	19682	3.39	0.18
8	19702	3.39333333333	0.18
8	19722	3.39666666667	0.18
8	19742	3.4	0.18
8	19762	3.40333333333	0.18
8	19782	3.40666666667	0.18
8	19802	3.41	0.18
8	19822	3.41333333333	0.18
8	19842	3.41666666667	0.18
8	19862	3.42	0.18
8	19882	3.42333333333	0.18
8	19902	3.42666666667	0.18
8	19922	3.43	0.18
8	19942	3.43333333333	0.18
8	19962	3.43666666667	0.18
8	19982	3.44	0.18
8	20002	3.44333333333	0.18
8	20022	3.44666666667	0.18
8	20042	3.45	0.18
8	20062	3.45333333333	0.18
8	20082	3.45666666667	0.18
8	20102	3.46	0.18
8	20122	3.46333333333	0.18
8	20142	3.46666666667	0.18
8	20162	3.47	0.18
8	20182	3.47333333333	0.18
8	20202	3.47666666667	0.18
8	20222	3.48	0.18
8	20242	3.48333333333	0.18
8	20262	3.48666666667	0.18
8	20282	3.49	0.18
8	20302	3.49333333333	0.18
8	20322	3.49666666667	0.18
8	20346	3.5	0.18
8	20366	3.50333333333	0.18
8	20386	3.50666666667	0.18
8	20406	3.51	0.18
8	20426	3.51333333333	0.18
8	20446	3.51666666667	0.18
8	20466	3.52	0.18
8	20486	3.52333333333	0.18
8	20506	3.52666666667	0.18
8	20526	3.53	0.18
8	20546	3.53333333333	0.18
8	20566	3.53666666667	0.18
8	20586	3.54	0.18
8	20606	3.54333333333	0.18
8	20626	3.54666666667	0.18
8	20646	3.55	0.18
8	20666	3.55333333333	0.18
8	20686	3.55666666667	0.18
8	20706	3.56	0.18
8	20726	3.56333333333	0.18
8	20746	3.56666666667	0.18
8	20766	3.57	0.18
8	20786	3.57333333333	0.18
8	20806	3.57666666667	0.18
8	20826	3.58	0.18
8	20846	3.58333333333	0.18
8	20866	3.58666666667	0.18
8	20886	3.59	0.18
8	20906	3.59333333333	0.18
8	20926	3.59666666667	0.18
8	20946	3.6	0.18
8	20966	3.60333333333	0.18
8	20986	3.60666666667	0.18
8	21006	3.61	0.18
8	21026	3.61333333333	0.18
8	21046	3.61666666667	0.18
8	21066	3.62	0.18
8	21086	3.62333333333	0.18
8	21106	3.62666666667	0.18
8	21126	3.63	0.18
8	21146	3.63333333333	0.18
8	21166	3.63666666667	0.18
8	21186	3.64	0.18
8	21206	3.64333333333	0.18
8	21226	3.64666666667	0.18
8	21246	3.65	0.18
8	21266	3.65333333333	0.18
8	21286	3.65666666667	0.18
8	21306	3.66	0.18
8	21326	3.66333333333	0.18
8	21346	3.66666666667	0.18
8	21366	3.67	0.18
8	21386	3.67333333333	0.18
8	21406	3.67666666667	0.18
8	21426	3.68	0.18
8	21446	3.68333333333	0.18
8	21466	3.68666666667	0.18
8	21486	3.69	0.18
8	21506	3.69333333333	0.18
8	21526	3.69666666667	0.18
8	21546	3.7	0.18
8	21566	3.70333333333	0.18
8	21586	3.70666666667	0.18
8	21606	3.71	0.18
8	21626	3.71333333333	0.18
8	21646	3.71666666667	0.18
8	21666	3.72	0.18
8	21686	3.72333333333	0.18
8	21706	3.72666666667	0.18
8	21726	3.73	0.18
8	21746	3.73333333333	0.18
8	21766	3.73666666667	0.18
8	21786	3.74	0.18
8	21806	3.74333333333	0.18
8	21826	3.74666666667	0.18
8	21846	3.75	0.18
8	21866	3.75333333333	0.18
8	21886	3.75666666667	0.18
8	21906	3.76	0.18
8	21926	3.76333333333	0.18
8	21946	3.76666666667	0.18
8	21966	3.77	0.18
8	21986	3.77333333333	0.18
8	22006	3.77666666667	0.18
8	22026	3.78	0.18
8	22046	3.78333333333	0.18
8	22066	3.78666666667	0.18
8	22086	3.79	0.18
8	22106	3.79333333333	0.18
8	22126	3.79666666667	0.18
8	22146	3.8	0.18