version 2
run simpleNet-0-20181107-05:15:51-31211
attr configname simpleNet
attr datetime 20181107-05:15:51
attr experiment simpleNet
attr inifile omnetpp.ini
attr iterationvars ""
attr iterationvarsf ""
attr measurement ""
attr network simpleNet
attr processid 31211
attr repetition 0
attr replication #0
attr resultdir results
attr runnumber 0
attr seedset 0

vector 0 simpleNet.node[0] numInQueue:vector ETV
attr interpolationmode none
attr source numInQueue
attr title "total num in queue, vector"
vector 1 simpleNet.node[0] numProcessed:vector ETV
attr interpolationmode none
attr source numProcessed
attr title "num processed in statRate time, vector"
vector 2 simpleNet.node[1] numInQueue:vector ETV
attr interpolationmode none
attr source numInQueue
attr title "total num in queue, vector"
vector 3 simpleNet.node[1] numProcessed:vector ETV
attr interpolationmode none
attr source numProcessed
attr title "num processed in statRate time, vector"
vector 4 simpleNet.node[2] numInQueue:vector ETV
attr interpolationmode none
attr source numInQueue
attr title "total num in queue, vector"
vector 5 simpleNet.node[2] numProcessed:vector ETV
attr interpolationmode none
attr source numProcessed
attr title "num processed in statRate time, vector"
vector 6 simpleNet.node[3] numInQueue:vector ETV
attr interpolationmode none
attr source numInQueue
attr title "total num in queue, vector"
vector 7 simpleNet.node[3] numProcessed:vector ETV
attr interpolationmode none
attr source numProcessed
attr title "num processed in statRate time, vector"
vector 8 simpleNet.node[0] completionTime:vector ETV
attr interpolationmode none
attr source completionTime
attr title "completionTime, vector"
vector 9 simpleNet.node[3] completionTime:vector ETV
attr interpolationmode none
attr source completionTime
attr title "completionTime, vector"
0	2	0	0
0	203	0.5	0
0	461	1	0
0	711	1.5	0
0	969	2	0
0	1219	2.5	0
0	1477	3	0
0	1727	3.5	0
0	1985	4	0
0	2235	4.5	0
0	2493	5	0
0	2743	5.5	0
0	3001	6	0
0	3251	6.5	0
0	3509	7	0
0	3759	7.5	0
0	4017	8	0
0	4267	8.5	0
0	4525	9	0
0	4775	9.5	0
0	5031	10	0
0	5085	10.5	0
1	2	0	0
1	203	0.5	17
1	461	1	26
1	711	1.5	24
1	969	2	26
1	1219	2.5	24
1	1477	3	26
1	1727	3.5	24
1	1985	4	26
1	2235	4.5	24
1	2493	5	26
1	2743	5.5	24
1	3001	6	26
1	3251	6.5	24
1	3509	7	26
1	3759	7.5	24
1	4017	8	26
1	4267	8.5	24
1	4525	9	26
1	4775	9.5	24
1	5031	10	26
1	5085	10.5	7
2	3	0	0
2	204	0.5	0
2	462	1	0
2	712	1.5	0
2	970	2	0
2	1220	2.5	0
2	1478	3	0
2	1728	3.5	0
2	1986	4	0
2	2236	4.5	0
2	2494	5	0
2	2744	5.5	0
2	3002	6	0
2	3252	6.5	0
2	3510	7	0
2	3760	7.5	0
2	4018	8	0
2	4268	8.5	0
2	4526	9	0
2	4776	9.5	0
2	5032	10	0
2	5086	10.5	0
3	3	0	0
3	204	0.5	35
3	462	1	50
3	712	1.5	50
3	970	2	50
3	1220	2.5	50
3	1478	3	50
3	1728	3.5	50
3	1986	4	50
3	2236	4.5	50
3	2494	5	50
3	2744	5.5	50
3	3002	6	50
3	3252	6.5	50
3	3510	7	50
3	3760	7.5	50
3	4018	8	50
3	4268	8.5	50
3	4526	9	50
3	4776	9.5	50
3	5032	10	50
3	5086	10.5	15
4	4	0	0
4	205	0.5	0
4	463	1	0
4	713	1.5	0
4	971	2	0
4	1221	2.5	0
4	1479	3	0
4	1729	3.5	0
4	1987	4	0
4	2237	4.5	0
4	2495	5	0
4	2745	5.5	0
4	3003	6	0
4	3253	6.5	0
4	3511	7	0
4	3761	7.5	0
4	4019	8	0
4	4269	8.5	0
4	4527	9	0
4	4777	9.5	0
4	5033	10	0
4	5087	10.5	0
5	4	0	0
5	205	0.5	35
5	463	1	50
5	713	1.5	50
5	971	2	50
5	1221	2.5	50
5	1479	3	50
5	1729	3.5	50
5	1987	4	50
5	2237	4.5	50
5	2495	5	50
5	2745	5.5	50
5	3003	6	50
5	3253	6.5	50
5	3511	7	50
5	3761	7.5	50
5	4019	8	50
5	4269	8.5	50
5	4527	9	50
5	4777	9.5	50
5	5033	10	50
5	5087	10.5	15
6	6	0	0
6	206	0.5	0
6	464	1	0
6	714	1.5	0
6	972	2	0
6	1222	2.5	0
6	1480	3	0
6	1730	3.5	0
6	1988	4	0
6	2238	4.5	0
6	2496	5	0
6	2746	5.5	0
6	3004	6	0
6	3254	6.5	0
6	3512	7	0
6	3762	7.5	0
6	4020	8	0
6	4270	8.5	0
6	4528	9	0
6	4778	9.5	0
6	5034	10	0
6	5088	10.5	0
7	6	0	0
7	206	0.5	17
7	464	1	26
7	714	1.5	24
7	972	2	26
7	1222	2.5	24
7	1480	3	26
7	1730	3.5	24
7	1988	4	26
7	2238	4.5	24
7	2496	5	26
7	2746	5.5	24
7	3004	6	26
7	3254	6.5	24
7	3512	7	26
7	3762	7.5	24
7	4020	8	26
7	4270	8.5	24
7	4528	9	26
7	4778	9.5	24
7	5034	10	26
7	5088	10.5	7
8	46	0.18	0.18
8	66	0.22	0.18
8	86	0.26	0.18
8	106	0.3	0.18
8	126	0.34	0.18
8	146	0.38	0.18
8	166	0.42	0.18
8	186	0.46	0.18
8	210	0.5	0.18
8	230	0.54	0.18
8	250	0.58	0.18
8	270	0.62	0.18
8	290	0.66	0.18
8	310	0.7	0.18
8	330	0.74	0.18
8	350	0.78	0.18
8	370	0.82	0.18
8	390	0.86	0.18
8	410	0.9	0.18
8	430	0.94	0.18
8	450	0.98	0.18
8	474	1.02	0.18
8	494	1.06	0.18
8	514	1.1	0.18
8	534	1.14	0.18
8	554	1.18	0.18
8	574	1.22	0.18
8	594	1.26	0.18
8	614	1.3	0.18
8	634	1.34	0.18
8	654	1.38	0.18
8	674	1.42	0.18
8	694	1.46	0.18
8	718	1.5	0.18
8	738	1.54	0.18
8	758	1.58	0.18
8	778	1.62	0.18
8	798	1.66	0.18
8	818	1.7	0.18
8	838	1.74	0.18
8	858	1.78	0.18
8	878	1.82	0.18
8	898	1.86	0.18
8	918	1.9	0.18
8	938	1.94	0.18
8	958	1.98	0.18
8	982	2.02	0.18
8	1002	2.06	0.18
8	1022	2.1	0.18
8	1042	2.14	0.18
8	1062	2.18	0.18
8	1082	2.22	0.18
8	1102	2.26	0.18
8	1122	2.3	0.18
8	1142	2.34	0.18
8	1162	2.38	0.18
8	1182	2.42	0.18
8	1202	2.46	0.18
8	1226	2.5	0.18
8	1246	2.54	0.18
8	1266	2.58	0.18
8	1286	2.62	0.18
8	1306	2.66	0.18
8	1326	2.7	0.18
8	1346	2.74	0.18
8	1366	2.78	0.18
8	1386	2.82	0.18
8	1406	2.86	0.18
8	1426	2.9	0.18
8	1446	2.94	0.18
8	1466	2.98	0.18
8	1490	3.02	0.18
8	1510	3.06	0.18
8	1530	3.1	0.18
8	1550	3.14	0.18
8	1570	3.18	0.18
8	1590	3.22	0.18
8	1610	3.26	0.18
8	1630	3.3	0.18
8	1650	3.34	0.18
8	1670	3.38	0.18
8	1690	3.42	0.18
8	1710	3.46	0.18
8	1734	3.5	0.18
8	1754	3.54	0.18
8	1774	3.58	0.18
8	1794	3.62	0.18
8	1814	3.66	0.18
8	1834	3.7	0.18
8	1854	3.74	0.18
8	1874	3.78	0.18
8	1894	3.82	0.18
8	1914	3.86	0.18
8	1934	3.9	0.18
8	1954	3.94	0.18
8	1974	3.98	0.18
8	1998	4.02	0.18
8	2018	4.06	0.18
8	2038	4.1	0.18
8	2058	4.14	0.18
8	2078	4.18	0.18
8	2098	4.22	0.18
8	2118	4.26	0.18
8	2138	4.3	0.18
8	2158	4.34	0.18
8	2178	4.38	0.18
8	2198	4.42	0.18
8	2218	4.46	0.18
8	2242	4.5	0.18
8	2262	4.54	0.18
8	2282	4.58	0.18
8	2302	4.62	0.18
8	2322	4.66	0.18
8	2342	4.7	0.18
8	2362	4.74	0.18
8	2382	4.78	0.18
8	2402	4.82	0.18
8	2422	4.86	0.18
8	2442	4.9	0.18
8	2462	4.94	0.18
8	2482	4.98	0.18
8	2506	5.02	0.18
8	2526	5.06	0.18
8	2546	5.1	0.18
8	2566	5.14	0.18
8	2586	5.18	0.18
8	2606	5.22	0.18
8	2626	5.26	0.18
8	2646	5.3	0.18
8	2666	5.34	0.18
8	2686	5.38	0.18
8	2706	5.42	0.18
8	2726	5.46	0.18
8	2750	5.5	0.18
8	2770	5.54	0.18
8	2790	5.58	0.18
8	2810	5.62	0.18
8	2830	5.66	0.18
8	2850	5.7	0.18
8	2870	5.74	0.18
8	2890	5.78	0.18
8	2910	5.82	0.18
8	2930	5.86	0.18
8	2950	5.9	0.18
8	2970	5.94	0.18
8	2990	5.98	0.18
8	3014	6.02	0.18
8	3034	6.06	0.18
8	3054	6.1	0.18
8	3074	6.14	0.18
8	3094	6.18	0.18
8	3114	6.22	0.18
8	3134	6.26	0.18
8	3154	6.3	0.18
8	3174	6.34	0.18
8	3194	6.38	0.18
8	3214	6.42	0.18
8	3234	6.46	0.18
8	3258	6.5	0.18
8	3278	6.54	0.18
8	3298	6.58	0.18
8	3318	6.62	0.18
8	3338	6.66	0.18
8	3358	6.7	0.18
8	3378	6.74	0.18
8	3398	6.78	0.18
8	3418	6.82	0.18
8	3438	6.86	0.18
8	3458	6.9	0.18
8	3478	6.94	0.18
8	3498	6.98	0.18
8	3522	7.02	0.18
8	3542	7.06	0.18
8	3562	7.1	0.18
8	3582	7.14	0.18
8	3602	7.18	0.18
8	3622	7.22	0.18
8	3642	7.26	0.18
8	3662	7.3	0.18
8	3682	7.34	0.18
8	3702	7.38	0.18
8	3722	7.42	0.18
8	3742	7.46	0.18
8	3766	7.5	0.18
8	3786	7.54	0.18
8	3806	7.58	0.18
8	3826	7.62	0.18
8	3846	7.66	0.18
8	3866	7.7	0.18
8	3886	7.74	0.18
8	3906	7.78	0.18
8	3926	7.82	0.18
8	3946	7.86	0.18
8	3966	7.9	0.18
8	3986	7.94	0.18
8	4006	7.98	0.18
8	4030	8.02	0.18
8	4050	8.06	0.18
8	4070	8.1	0.18
8	4090	8.14	0.18
8	4110	8.18	0.18
8	4130	8.22	0.18
8	4150	8.26	0.18
8	4170	8.3	0.18
8	4190	8.34	0.18
8	4210	8.38	0.18
8	4230	8.42	0.18
8	4250	8.46	0.18
8	4274	8.5	0.18
8	4294	8.54	0.18
8	4314	8.58	0.18
8	4334	8.62	0.18
8	4354	8.66	0.18
8	4374	8.7	0.18
8	4394	8.74	0.18
8	4414	8.78	0.18
8	4434	8.82	0.18
8	4454	8.86	0.18
8	4474	8.9	0.18
8	4494	8.94	0.18
8	4514	8.98	0.18
8	4538	9.02	0.18
8	4558	9.06	0.18
8	4578	9.1	0.18
8	4598	9.14	0.18
8	4618	9.18	0.18
8	4638	9.22	0.18
8	4658	9.26	0.18
8	4678	9.3	0.18
8	4698	9.34	0.18
8	4718	9.38	0.18
8	4738	9.42	0.18
8	4758	9.46	0.18
8	4782	9.5	0.18
8	4802	9.54	0.18
8	4822	9.58	0.18
8	4842	9.62	0.18
8	4862	9.66	0.18
8	4882	9.7	0.18
8	4902	9.74	0.18
8	4922	9.78	0.18
8	4942	9.82	0.18
8	4962	9.86	0.18
8	4982	9.9	0.18
8	5002	9.94	0.18
8	5022	9.98	0.18
8	5044	10.02	0.18
8	5058	10.06	0.18
8	5070	10.1	0.18
8	5080	10.14	0.18
9	48	0.18	0.18
9	68	0.22	0.18
9	88	0.26	0.18
9	108	0.3	0.18
9	128	0.34	0.18
9	148	0.38	0.18
9	168	0.42	0.18
9	188	0.46	0.18
9	212	0.5	0.18
9	232	0.54	0.18
9	252	0.58	0.18
9	272	0.62	0.18
9	292	0.66	0.18
9	312	0.7	0.18
9	332	0.74	0.18
9	352	0.78	0.18
9	372	0.82	0.18
9	392	0.86	0.18
9	412	0.9	0.18
9	432	0.94	0.18
9	452	0.98	0.18
9	476	1.02	0.18
9	496	1.06	0.18
9	516	1.1	0.18
9	536	1.14	0.18
9	556	1.18	0.18
9	576	1.22	0.18
9	596	1.26	0.18
9	616	1.3	0.18
9	636	1.34	0.18
9	656	1.38	0.18
9	676	1.42	0.18
9	696	1.46	0.18
9	720	1.5	0.18
9	740	1.54	0.18
9	760	1.58	0.18
9	780	1.62	0.18
9	800	1.66	0.18
9	820	1.7	0.18
9	840	1.74	0.18
9	860	1.78	0.18
9	880	1.82	0.18
9	900	1.86	0.18
9	920	1.9	0.18
9	940	1.94	0.18
9	960	1.98	0.18
9	984	2.02	0.18
9	1004	2.06	0.18
9	1024	2.1	0.18
9	1044	2.14	0.18
9	1064	2.18	0.18
9	1084	2.22	0.18
9	1104	2.26	0.18
9	1124	2.3	0.18
9	1144	2.34	0.18
9	1164	2.38	0.18
9	1184	2.42	0.18
9	1204	2.46	0.18
9	1228	2.5	0.18
9	1248	2.54	0.18
9	1268	2.58	0.18
9	1288	2.62	0.18
9	1308	2.66	0.18
9	1328	2.7	0.18
9	1348	2.74	0.18
9	1368	2.78	0.18
9	1388	2.82	0.18
9	1408	2.86	0.18
9	1428	2.9	0.18
9	1448	2.94	0.18
9	1468	2.98	0.18
9	1492	3.02	0.18
9	1512	3.06	0.18
9	1532	3.1	0.18
9	1552	3.14	0.18
9	1572	3.18	0.18
9	1592	3.22	0.18
9	1612	3.26	0.18
9	1632	3.3	0.18
9	1652	3.34	0.18
9	1672	3.38	0.18
9	1692	3.42	0.18
9	1712	3.46	0.18
9	1736	3.5	0.18
9	1756	3.54	0.18
9	1776	3.58	0.18
9	1796	3.62	0.18
9	1816	3.66	0.18
9	1836	3.7	0.18
9	1856	3.74	0.18
9	1876	3.78	0.18
9	1896	3.82	0.18
9	1916	3.86	0.18
9	1936	3.9	0.18
9	1956	3.94	0.18
9	1976	3.98	0.18
9	2000	4.02	0.18
9	2020	4.06	0.18
9	2040	4.1	0.18
9	2060	4.14	0.18
9	2080	4.18	0.18
9	2100	4.22	0.18
9	2120	4.26	0.18
9	2140	4.3	0.18
9	2160	4.34	0.18
9	2180	4.38	0.18
9	2200	4.42	0.18
9	2220	4.46	0.18
9	2244	4.5	0.18
9	2264	4.54	0.18
9	2284	4.58	0.18
9	2304	4.62	0.18
9	2324	4.66	0.18
9	2344	4.7	0.18
9	2364	4.74	0.18
9	2384	4.78	0.18
9	2404	4.82	0.18
9	2424	4.86	0.18
9	2444	4.9	0.18
9	2464	4.94	0.18
9	2484	4.98	0.18
9	2508	5.02	0.18
9	2528	5.06	0.18
9	2548	5.1	0.18
9	2568	5.14	0.18
9	2588	5.18	0.18
9	2608	5.22	0.18
9	2628	5.26	0.18
9	2648	5.3	0.18
9	2668	5.34	0.18
9	2688	5.38	0.18
9	2708	5.42	0.18
9	2728	5.46	0.18
9	2752	5.5	0.18
9	2772	5.54	0.18
9	2792	5.58	0.18
9	2812	5.62	0.18
9	2832	5.66	0.18
9	2852	5.7	0.18
9	2872	5.74	0.18
9	2892	5.78	0.18
9	2912	5.82	0.18
9	2932	5.86	0.18
9	2952	5.9	0.18
9	2972	5.94	0.18
9	2992	5.98	0.18
9	3016	6.02	0.18
9	3036	6.06	0.18
9	3056	6.1	0.18
9	3076	6.14	0.18
9	3096	6.18	0.18
9	3116	6.22	0.18
9	3136	6.26	0.18
9	3156	6.3	0.18
9	3176	6.34	0.18
9	3196	6.38	0.18
9	3216	6.42	0.18
9	3236	6.46	0.18
9	3260	6.5	0.18
9	3280	6.54	0.18
9	3300	6.58	0.18
9	3320	6.62	0.18
9	3340	6.66	0.18
9	3360	6.7	0.18
9	3380	6.74	0.18
9	3400	6.78	0.18
9	3420	6.82	0.18
9	3440	6.86	0.18
9	3460	6.9	0.18
9	3480	6.94	0.18
9	3500	6.98	0.18
9	3524	7.02	0.18
9	3544	7.06	0.18
9	3564	7.1	0.18
9	3584	7.14	0.18
9	3604	7.18	0.18
9	3624	7.22	0.18
9	3644	7.26	0.18
9	3664	7.3	0.18
9	3684	7.34	0.18
9	3704	7.38	0.18
9	3724	7.42	0.18
9	3744	7.46	0.18
9	3768	7.5	0.18
9	3788	7.54	0.18
9	3808	7.58	0.18
9	3828	7.62	0.18
9	3848	7.66	0.18
9	3868	7.7	0.18
9	3888	7.74	0.18
9	3908	7.78	0.18
9	3928	7.82	0.18
9	3948	7.86	0.18
9	3968	7.9	0.18
9	3988	7.94	0.18
9	4008	7.98	0.18
9	4032	8.02	0.18
9	4052	8.06	0.18
9	4072	8.1	0.18
9	4092	8.14	0.18
9	4112	8.18	0.18
9	4132	8.22	0.18
9	4152	8.26	0.18
9	4172	8.3	0.18
9	4192	8.34	0.18
9	4212	8.38	0.18
9	4232	8.42	0.18
9	4252	8.46	0.18
9	4276	8.5	0.18
9	4296	8.54	0.18
9	4316	8.58	0.18
9	4336	8.62	0.18
9	4356	8.66	0.18
9	4376	8.7	0.18
9	4396	8.74	0.18
9	4416	8.78	0.18
9	4436	8.82	0.18
9	4456	8.86	0.18
9	4476	8.9	0.18
9	4496	8.94	0.18
9	4516	8.98	0.18
9	4540	9.02	0.18
9	4560	9.06	0.18
9	4580	9.1	0.18
9	4600	9.14	0.18
9	4620	9.18	0.18
9	4640	9.22	0.18
9	4660	9.26	0.18
9	4680	9.3	0.18
9	4700	9.34	0.18
9	4720	9.38	0.18
9	4740	9.42	0.18
9	4760	9.46	0.18
9	4784	9.5	0.18
9	4804	9.54	0.18
9	4824	9.58	0.18
9	4844	9.62	0.18
9	4864	9.66	0.18
9	4884	9.7	0.18
9	4904	9.74	0.18
9	4924	9.78	0.18
9	4944	9.82	0.18
9	4964	9.86	0.18
9	4984	9.9	0.18
9	5004	9.94	0.18
9	5024	9.98	0.18
9	5046	10.02	0.18
9	5060	10.06	0.18
9	5072	10.1	0.18
9	5082	10.14	0.18

