version 2
run simpleNet-0-20181107-05:08:43-31149
attr configname simpleNet
attr datetime 20181107-05:08:43
attr experiment simpleNet
attr inifile omnetpp.ini
attr iterationvars ""
attr iterationvarsf ""
attr measurement ""
attr network simpleNet
attr processid 31149
attr repetition 0
attr replication #0
attr resultdir results
attr runnumber 0
attr seedset 0

vector 0 simpleNet.node[0] numInQueue:vector ETV
attr interpolationmode none
attr source numInQueue
attr title "total num in queue, vector"
vector 1 simpleNet.node[0] numProcessed:vector ETV
attr interpolationmode none
attr source numProcessed
attr title "num processed in statRate time, vector"
vector 2 simpleNet.node[1] numInQueue:vector ETV
attr interpolationmode none
attr source numInQueue
attr title "total num in queue, vector"
vector 3 simpleNet.node[1] numProcessed:vector ETV
attr interpolationmode none
attr source numProcessed
attr title "num processed in statRate time, vector"
vector 4 simpleNet.node[2] numInQueue:vector ETV
attr interpolationmode none
attr source numInQueue
attr title "total num in queue, vector"
vector 5 simpleNet.node[2] numProcessed:vector ETV
attr interpolationmode none
attr source numProcessed
attr title "num processed in statRate time, vector"
vector 6 simpleNet.node[3] numInQueue:vector ETV
attr interpolationmode none
attr source numInQueue
attr title "total num in queue, vector"
vector 7 simpleNet.node[3] numProcessed:vector ETV
attr interpolationmode none
attr source numProcessed
attr title "num processed in statRate time, vector"
vector 8 simpleNet.node[0] completionTime:vector ETV
attr interpolationmode none
attr source completionTime
attr title "completionTime, vector"
vector 9 simpleNet.node[3] completionTime:vector ETV
attr interpolationmode none
attr source completionTime
attr title "completionTime, vector"
0	2	0	0
0	99	0.5	0
0	217	1	0
0	327	1.5	0
0	445	2	0
0	555	2.5	0
0	673	3	0
0	783	3.5	0
0	901	4	0
0	1011	4.5	0
0	1129	5	0
0	1239	5.5	0
0	1357	6	0
0	1467	6.5	0
0	1585	7	0
0	1695	7.5	0
0	1813	8	0
0	1923	8.5	0
0	2041	9	0
0	2151	9.5	0
0	2267	10	0
0	2285	10.5	0
1	2	0	0
1	99	0.5	8
1	217	1	12
1	327	1.5	10
1	445	2	12
1	555	2.5	10
1	673	3	12
1	783	3.5	10
1	901	4	12
1	1011	4.5	10
1	1129	5	12
1	1239	5.5	10
1	1357	6	12
1	1467	6.5	10
1	1585	7	12
1	1695	7.5	10
1	1813	8	12
1	1923	8.5	10
1	2041	9	12
1	2151	9.5	10
1	2267	10	12
1	2285	10.5	2
2	3	0	0
2	100	0.5	0
2	218	1	0
2	328	1.5	0
2	446	2	0
2	556	2.5	0
2	674	3	0
2	784	3.5	0
2	902	4	0
2	1012	4.5	0
2	1130	5	0
2	1240	5.5	0
2	1358	6	0
2	1468	6.5	0
2	1586	7	0
2	1696	7.5	0
2	1814	8	0
2	1924	8.5	0
2	2042	9	0
2	2152	9.5	0
2	2268	10	0
2	2286	10.5	0
3	3	0	0
3	100	0.5	17
3	218	1	22
3	328	1.5	22
3	446	2	22
3	556	2.5	22
3	674	3	22
3	784	3.5	22
3	902	4	22
3	1012	4.5	22
3	1130	5	22
3	1240	5.5	22
3	1358	6	22
3	1468	6.5	22
3	1586	7	22
3	1696	7.5	22
3	1814	8	22
3	1924	8.5	22
3	2042	9	22
3	2152	9.5	22
3	2268	10	22
3	2286	10.5	5
4	4	0	0
4	101	0.5	0
4	219	1	0
4	329	1.5	0
4	447	2	0
4	557	2.5	0
4	675	3	0
4	785	3.5	0
4	903	4	0
4	1013	4.5	0
4	1131	5	0
4	1241	5.5	0
4	1359	6	0
4	1469	6.5	0
4	1587	7	0
4	1697	7.5	0
4	1815	8	0
4	1925	8.5	0
4	2043	9	0
4	2153	9.5	0
4	2269	10	0
4	2287	10.5	0
5	4	0	0
5	101	0.5	17
5	219	1	22
5	329	1.5	22
5	447	2	22
5	557	2.5	22
5	675	3	22
5	785	3.5	22
5	903	4	22
5	1013	4.5	22
5	1131	5	22
5	1241	5.5	22
5	1359	6	22
5	1469	6.5	22
5	1587	7	22
5	1697	7.5	22
5	1815	8	22
5	1925	8.5	22
5	2043	9	22
5	2153	9.5	22
5	2269	10	22
5	2287	10.5	5
6	6	0	0
6	102	0.5	0
6	220	1	0
6	330	1.5	0
6	448	2	0
6	558	2.5	0
6	676	3	0
6	786	3.5	0
6	904	4	0
6	1014	4.5	0
6	1132	5	0
6	1242	5.5	0
6	1360	6	0
6	1470	6.5	0
6	1588	7	0
6	1698	7.5	0
6	1816	8	0
6	1926	8.5	0
6	2044	9	0
6	2154	9.5	0
6	2270	10	0
6	2288	10.5	0
7	6	0	0
7	102	0.5	8
7	220	1	12
7	330	1.5	10
7	448	2	12
7	558	2.5	10
7	676	3	12
7	786	3.5	10
7	904	4	12
7	1014	4.5	10
7	1132	5	12
7	1242	5.5	10
7	1360	6	12
7	1470	6.5	10
7	1588	7	12
7	1698	7.5	10
7	1816	8	12
7	1926	8.5	10
7	2044	9	12
7	2154	9.5	10
7	2270	10	12
7	2288	10.5	2
8	26	0.18	0.18
8	46	0.270909090909	0.18
8	66	0.361818181818	0.18
8	86	0.452727272727	0.18
8	110	0.543636363636	0.18
8	130	0.634545454545	0.18
8	150	0.725454545455	0.18
8	170	0.816363636364	0.18
8	190	0.907272727273	0.18
8	210	0.998181818182	0.18
8	234	1.089090909091	0.18
8	254	1.18	0.18
8	274	1.27090909091	0.18
8	294	1.36181818182	0.18
8	314	1.45272727273	0.18
8	338	1.54363636364	0.18
8	358	1.63454545455	0.18
8	378	1.72545454545	0.18
8	398	1.81636363636	0.18
8	418	1.90727272727	0.18
8	438	1.99818181818	0.18
8	462	2.08909090909	0.18
8	482	2.18	0.18
8	502	2.27090909091	0.18
8	522	2.36181818182	0.18
8	542	2.45272727273	0.18
8	566	2.54363636364	0.18
8	586	2.63454545455	0.18
8	606	2.72545454545	0.18
8	626	2.81636363636	0.18
8	646	2.90727272727	0.18
8	666	2.99818181818	0.18
8	690	3.08909090909	0.18
8	710	3.18	0.18
8	730	3.27090909091	0.18
8	750	3.36181818182	0.18
8	770	3.45272727273	0.18
8	794	3.54363636364	0.18
8	814	3.63454545455	0.18
8	834	3.72545454545	0.18
8	854	3.81636363636	0.18
8	874	3.90727272727	0.18
8	894	3.99818181818	0.18
8	918	4.08909090909	0.18
8	938	4.18	0.18
8	958	4.27090909091	0.18
8	978	4.36181818182	0.18
8	998	4.45272727273	0.18
8	1022	4.54363636364	0.18
8	1042	4.63454545455	0.18
8	1062	4.72545454545	0.18
8	1082	4.81636363636	0.18
8	1102	4.90727272727	0.18
8	1122	4.99818181818	0.18
8	1146	5.08909090909	0.18
8	1166	5.18	0.18
8	1186	5.27090909091	0.18
8	1206	5.36181818182	0.18
8	1226	5.45272727273	0.18
8	1250	5.54363636364	0.18
8	1270	5.63454545455	0.18
8	1290	5.72545454545	0.18
8	1310	5.81636363636	0.18
8	1330	5.90727272727	0.18
8	1350	5.99818181818	0.18
8	1374	6.08909090909	0.18
8	1394	6.18	0.18
8	1414	6.27090909091	0.18
8	1434	6.36181818182	0.18
8	1454	6.45272727273	0.18
8	1478	6.54363636364	0.18
8	1498	6.63454545455	0.18
8	1518	6.72545454545	0.18
8	1538	6.81636363636	0.18
8	1558	6.90727272727	0.18
8	1578	6.99818181818	0.18
8	1602	7.08909090909	0.18
8	1622	7.18	0.18
8	1642	7.27090909091	0.18
8	1662	7.36181818182	0.18
8	1682	7.45272727273	0.18
8	1706	7.54363636364	0.18
8	1726	7.63454545455	0.18
8	1746	7.72545454545	0.18
8	1766	7.81636363636	0.18
8	1786	7.90727272727	0.18
8	1806	7.99818181818	0.18
8	1830	8.08909090909	0.18
8	1850	8.18	0.18
8	1870	8.27090909091	0.18
8	1890	8.36181818182	0.18
8	1910	8.45272727273	0.18
8	1934	8.54363636364	0.18
8	1954	8.63454545455	0.18
8	1974	8.72545454545	0.18
8	1994	8.81636363636	0.18
8	2014	8.90727272727	0.18
8	2034	8.99818181818	0.18
8	2058	9.08909090909	0.18
8	2078	9.18	0.18
8	2098	9.27090909091	0.18
8	2118	9.36181818182	0.18
8	2138	9.45272727273	0.18
8	2162	9.54363636364	0.18
8	2182	9.63454545455	0.18
8	2202	9.72545454545	0.18
8	2222	9.81636363636	0.18
8	2242	9.90727272727	0.18
8	2262	9.99818181818	0.18
8	2280	10.08909090909	0.18
9	28	0.18	0.18
9	48	0.270909090909	0.18
9	68	0.361818181818	0.18
9	88	0.452727272727	0.18
9	112	0.543636363636	0.18
9	132	0.634545454545	0.18
9	152	0.725454545455	0.18
9	172	0.816363636364	0.18
9	192	0.907272727273	0.18
9	212	0.998181818182	0.18
9	236	1.089090909091	0.18
9	256	1.18	0.18
9	276	1.27090909091	0.18
9	296	1.36181818182	0.18
9	316	1.45272727273	0.18
9	340	1.54363636364	0.18
9	360	1.63454545455	0.18
9	380	1.72545454545	0.18
9	400	1.81636363636	0.18
9	420	1.90727272727	0.18
9	440	1.99818181818	0.18
9	464	2.08909090909	0.18
9	484	2.18	0.18
9	504	2.27090909091	0.18
9	524	2.36181818182	0.18
9	544	2.45272727273	0.18
9	568	2.54363636364	0.18
9	588	2.63454545455	0.18
9	608	2.72545454545	0.18
9	628	2.81636363636	0.18
9	648	2.90727272727	0.18
9	668	2.99818181818	0.18
9	692	3.08909090909	0.18
9	712	3.18	0.18
9	732	3.27090909091	0.18
9	752	3.36181818182	0.18
9	772	3.45272727273	0.18
9	796	3.54363636364	0.18
9	816	3.63454545455	0.18
9	836	3.72545454545	0.18
9	856	3.81636363636	0.18
9	876	3.90727272727	0.18
9	896	3.99818181818	0.18
9	920	4.08909090909	0.18
9	940	4.18	0.18
9	960	4.27090909091	0.18
9	980	4.36181818182	0.18
9	1000	4.45272727273	0.18
9	1024	4.54363636364	0.18
9	1044	4.63454545455	0.18
9	1064	4.72545454545	0.18
9	1084	4.81636363636	0.18
9	1104	4.90727272727	0.18
9	1124	4.99818181818	0.18
9	1148	5.08909090909	0.18
9	1168	5.18	0.18
9	1188	5.27090909091	0.18
9	1208	5.36181818182	0.18
9	1228	5.45272727273	0.18
9	1252	5.54363636364	0.18
9	1272	5.63454545455	0.18
9	1292	5.72545454545	0.18
9	1312	5.81636363636	0.18
9	1332	5.90727272727	0.18
9	1352	5.99818181818	0.18
9	1376	6.08909090909	0.18
9	1396	6.18	0.18
9	1416	6.27090909091	0.18
9	1436	6.36181818182	0.18
9	1456	6.45272727273	0.18
9	1480	6.54363636364	0.18
9	1500	6.63454545455	0.18
9	1520	6.72545454545	0.18
9	1540	6.81636363636	0.18
9	1560	6.90727272727	0.18
9	1580	6.99818181818	0.18
9	1604	7.08909090909	0.18
9	1624	7.18	0.18
9	1644	7.27090909091	0.18
9	1664	7.36181818182	0.18
9	1684	7.45272727273	0.18
9	1708	7.54363636364	0.18
9	1728	7.63454545455	0.18
9	1748	7.72545454545	0.18
9	1768	7.81636363636	0.18
9	1788	7.90727272727	0.18
9	1808	7.99818181818	0.18
9	1832	8.08909090909	0.18
9	1852	8.18	0.18
9	1872	8.27090909091	0.18
9	1892	8.36181818182	0.18
9	1912	8.45272727273	0.18
9	1936	8.54363636364	0.18
9	1956	8.63454545455	0.18
9	1976	8.72545454545	0.18
9	1996	8.81636363636	0.18
9	2016	8.90727272727	0.18
9	2036	8.99818181818	0.18
9	2060	9.08909090909	0.18
9	2080	9.18	0.18
9	2100	9.27090909091	0.18
9	2120	9.36181818182	0.18
9	2140	9.45272727273	0.18
9	2164	9.54363636364	0.18
9	2184	9.63454545455	0.18
9	2204	9.72545454545	0.18
9	2224	9.81636363636	0.18
9	2244	9.90727272727	0.18
9	2264	9.99818181818	0.18
9	2282	10.08909090909	0.18

