version 2
run simpleNet-0-20181107-05:38:16-31406
attr configname simpleNet
attr datetime 20181107-05:38:16
attr experiment simpleNet
attr inifile omnetpp.ini
attr iterationvars ""
attr iterationvarsf ""
attr measurement ""
attr network simpleNet
attr processid 31406
attr repetition 0
attr replication #0
attr resultdir results
attr runnumber 0
attr seedset 0

vector 0 simpleNet.node[0] numInQueue:vector ETV
attr interpolationmode none
attr source numInQueue
attr title "total num in queue, vector"
vector 1 simpleNet.node[0] numProcessed:vector ETV
attr interpolationmode none
attr source numProcessed
attr title "num processed in statRate time, vector"
0	2	0	0
1	2	0	0
vector 2 simpleNet.node[1] numInQueue:vector ETV
attr interpolationmode none
attr source numInQueue
attr title "total num in queue, vector"
vector 3 simpleNet.node[1] numProcessed:vector ETV
attr interpolationmode none
attr source numProcessed
attr title "num processed in statRate time, vector"
2	3	0	0
3	3	0	0
vector 4 simpleNet.node[2] numInQueue:vector ETV
attr interpolationmode none
attr source numInQueue
attr title "total num in queue, vector"
vector 5 simpleNet.node[2] numProcessed:vector ETV
attr interpolationmode none
attr source numProcessed
attr title "num processed in statRate time, vector"
4	4	0	0
5	4	0	0
vector 6 simpleNet.node[3] numInQueue:vector ETV
attr interpolationmode none
attr source numInQueue
attr title "total num in queue, vector"
vector 7 simpleNet.node[3] numProcessed:vector ETV
attr interpolationmode none
attr source numProcessed
attr title "num processed in statRate time, vector"
6	5	0	0
7	5	0	0
vector 8 simpleNet.node[0] completionTime:vector ETV
attr interpolationmode none
attr source completionTime
attr title "completionTime, vector"
0	697	0.5	0
0	1001	1	0
1	697	0.5	50
1	1001	1	0
2	698	0.5	91
2	1002	1	241
3	698	0.5	100
3	1002	1	0
4	699	0.5	0
4	1003	1	0
5	699	0.5	100
5	1003	1	0
6	700	0.5	0
6	1004	1	0
7	700	0.5	50
7	1004	1	0
8	216	0.183333333333	0.183333333333
8	224	0.186666666667	0.183333333334
8	234	0.19	0.183333333333
8	242	0.193333333333	0.183333333333
8	255	0.2	0.186666666667
8	261	0.2	0.183333333333
8	269	0.203333333333	0.183333333333
8	278	0.206666666667	0.183333333334
8	288	0.21	0.183333333333
8	297	0.213333333333	0.183333333333
8	306	0.216666666667	0.183333333334
8	317	0.22	0.183333333333
8	322	0.22	0.18
8	336	0.226666666667	0.183333333334
8	345	0.23	0.183333333333
8	350	0.23	0.18
8	359	0.233333333333	0.18
8	372	0.24	0.183333333333
8	381	0.243333333333	0.183333333333
8	386	0.243333333333	0.18
8	399	0.25	0.183333333333
8	404	0.25	0.18
8	416	0.256666666667	0.183333333334
8	421	0.256666666667	0.18
8	429	0.26	0.18
8	437	0.263333333333	0.18
8	445	0.266666666667	0.18
8	453	0.27	0.18
8	461	0.273333333333	0.18
8	469	0.276666666667	0.18
8	477	0.28	0.18
8	485	0.283333333333	0.18
8	492	0.286666666667	0.18
8	499	0.29	0.18
8	506	0.293333333333	0.18
8	513	0.296666666667	0.18
8	520	0.3	0.18
8	527	0.303333333333	0.18
8	534	0.306666666667	0.18
8	541	0.31	0.18
8	548	0.313333333333	0.18
8	553	0.316666666667	0.18
8	558	0.32	0.18
8	563	0.323333333333	0.18
8	568	0.326666666667	0.18
8	573	0.33	0.18
8	578	0.333333333333	0.18
8	583	0.336666666667	0.18
8	588	0.34	0.18
8	593	0.343333333333	0.18
0	1305	1.5	0
0	1609	2	0
0	1913	2.5	0
0	2217	3	0
0	2521	3.5	0
0	2825	4	0
0	3129	4.5	0
0	3433	5	0
0	3737	5.5	0
0	4041	6	0
0	4345	6.5	0
0	4649	7	0
0	4953	7.5	0
0	5257	8	0
0	5561	8.5	0
0	5865	9	0
0	6169	9.5	0
0	6472	10	0
0	6485	10.5	0
1	1305	1.5	0
1	1609	2	0
1	1913	2.5	0
1	2217	3	0
1	2521	3.5	0
1	2825	4	0
1	3129	4.5	0
1	3433	5	0
1	3737	5.5	0
1	4041	6	0
1	4345	6.5	0
1	4649	7	0
1	4953	7.5	0
1	5257	8	0
1	5561	8.5	0
1	5865	9	0
1	6169	9.5	0
1	6472	10	0
1	6485	10.5	0
2	1306	1.5	391
2	1610	2	541
2	1914	2.5	691
2	2218	3	841
2	2522	3.5	991
2	2826	4	1141
2	3130	4.5	1291
2	3434	5	1441
2	3738	5.5	1591
2	4042	6	1741
2	4346	6.5	1891
2	4650	7	2041
2	4954	7.5	2191
2	5258	8	2341
2	5562	8.5	2491
2	5866	9	2641
2	6170	9.5	2791
2	6473	10	2941
2	6486	10.5	2950
3	1306	1.5	0
3	1610	2	0
3	1914	2.5	0
3	2218	3	0
3	2522	3.5	0
3	2826	4	0
3	3130	4.5	0
3	3434	5	0
3	3738	5.5	0
3	4042	6	0
3	4346	6.5	0
3	4650	7	0
3	4954	7.5	0
3	5258	8	0
3	5562	8.5	0
3	5866	9	0
3	6170	9.5	0
3	6473	10	0
3	6486	10.5	0
4	1307	1.5	0
4	1611	2	0
4	1915	2.5	0
4	2219	3	0
4	2523	3.5	0
4	2827	4	0
4	3131	4.5	0
4	3435	5	0
4	3739	5.5	0
4	4043	6	0
4	4347	6.5	0
4	4651	7	0
4	4955	7.5	0
4	5259	8	0
4	5563	8.5	0
4	5867	9	0
4	6171	9.5	0
4	6474	10	0
4	6487	10.5	0
5	1307	1.5	0
5	1611	2	0
5	1915	2.5	0
5	2219	3	0
5	2523	3.5	0
5	2827	4	0
5	3131	4.5	0
5	3435	5	0
5	3739	5.5	0
5	4043	6	0
5	4347	6.5	0
5	4651	7	0
5	4955	7.5	0
5	5259	8	0
5	5563	8.5	0
5	5867	9	0
5	6171	9.5	0
5	6474	10	0
5	6487	10.5	0
6	1308	1.5	0
6	1612	2	0
6	1916	2.5	0
6	2220	3	0
6	2524	3.5	0
6	2828	4	0
6	3132	4.5	0
6	3436	5	0
6	3740	5.5	0
6	4044	6	0
6	4348	6.5	0
6	4652	7	0
6	4956	7.5	0
6	5260	8	0
6	5564	8.5	0
6	5868	9	0
6	6172	9.5	0
6	6475	10	0
6	6488	10.5	0
7	1308	1.5	0
7	1612	2	0
7	1916	2.5	0
7	2220	3	0
7	2524	3.5	0
7	2828	4	0
7	3132	4.5	0
7	3436	5	0
7	3740	5.5	0
7	4044	6	0
7	4348	6.5	0
7	4652	7	0
7	4956	7.5	0
7	5260	8	0
7	5564	8.5	0
7	5868	9	0
7	6172	9.5	0
7	6475	10	0
7	6488	10.5	0

