version 2
run simpleNet-0-20181128-00:03:23-40770
attr configname simpleNet
attr datetime 20181128-00:03:23
attr experiment simpleNet
attr inifile omnetpp.ini
attr iterationvars ""
attr iterationvarsf ""
attr measurement ""
attr network simpleNet
attr processid 40770
attr repetition 0
attr replication #0
attr resultdir results
attr runnumber 0
attr seedset 0

vector 0 simpleNet.node[0] "numAttemptedPerDest_Total(dest node 4):vector" ETV
vector 1 simpleNet.node[0] "numAttemptedPerDest_Total(dest node 1):vector" ETV
vector 2 simpleNet.node[0] "numInQueuePerChannel(node 1):vector" ETV
vector 3 simpleNet.node[0] "numInQueuePerChannel(node 4):vector" ETV
vector 4 simpleNet.node[0] "balancePerChannel(node 1):vector" ETV
vector 5 simpleNet.node[0] "balancePerChannel(node 4):vector" ETV
vector 6 simpleNet.node[0] "numProcessedPerChannel(node 0):vector" ETV
vector 7 simpleNet.node[0] "numProcessedPerChannel(node 1):vector" ETV
vector 8 simpleNet.node[0] "numProcessedPerChannel(node 2):vector" ETV
vector 9 simpleNet.node[0] "numProcessedPerChannel(node 3):vector" ETV
vector 10 simpleNet.node[0] "numProcessedPerChannel(node 4):vector" ETV
vector 11 simpleNet.node[0] "numSentPerChannel(node 0):vector" ETV
vector 12 simpleNet.node[0] "numSentPerChannel(node 1):vector" ETV
vector 13 simpleNet.node[0] "numSentPerChannel(node 2):vector" ETV
vector 14 simpleNet.node[0] "numSentPerChannel(node 3):vector" ETV
vector 15 simpleNet.node[0] "numSentPerChannel(node 4):vector" ETV
vector 16 simpleNet.node[1] "numAttemptedPerDest_Total(dest node 3):vector" ETV
vector 17 simpleNet.node[1] "numInQueuePerChannel(node 0):vector" ETV
vector 18 simpleNet.node[1] "numInQueuePerChannel(node 2):vector" ETV
vector 19 simpleNet.node[1] "numInQueuePerChannel(node 3):vector" ETV
vector 20 simpleNet.node[1] "balancePerChannel(node 0):vector" ETV
vector 21 simpleNet.node[1] "balancePerChannel(node 2):vector" ETV
vector 22 simpleNet.node[1] "balancePerChannel(node 3):vector" ETV
vector 23 simpleNet.node[1] "numProcessedPerChannel(node 0):vector" ETV
vector 24 simpleNet.node[1] "numProcessedPerChannel(node 1):vector" ETV
vector 25 simpleNet.node[1] "numProcessedPerChannel(node 2):vector" ETV
vector 26 simpleNet.node[1] "numProcessedPerChannel(node 3):vector" ETV
vector 27 simpleNet.node[1] "numProcessedPerChannel(node 4):vector" ETV
vector 28 simpleNet.node[1] "numSentPerChannel(node 0):vector" ETV
vector 29 simpleNet.node[1] "numSentPerChannel(node 1):vector" ETV
vector 30 simpleNet.node[1] "numSentPerChannel(node 2):vector" ETV
vector 31 simpleNet.node[1] "numSentPerChannel(node 3):vector" ETV
vector 32 simpleNet.node[1] "numSentPerChannel(node 4):vector" ETV
vector 33 simpleNet.node[2] "numAttemptedPerDest_Total(dest node 1):vector" ETV
vector 34 simpleNet.node[2] "numAttemptedPerDest_Total(dest node 4):vector" ETV
vector 35 simpleNet.node[2] "numInQueuePerChannel(node 1):vector" ETV
vector 36 simpleNet.node[2] "numInQueuePerChannel(node 3):vector" ETV
vector 37 simpleNet.node[2] "balancePerChannel(node 1):vector" ETV
vector 38 simpleNet.node[2] "balancePerChannel(node 3):vector" ETV
vector 39 simpleNet.node[2] "numProcessedPerChannel(node 0):vector" ETV
vector 40 simpleNet.node[2] "numProcessedPerChannel(node 1):vector" ETV
vector 41 simpleNet.node[2] "numProcessedPerChannel(node 2):vector" ETV
vector 42 simpleNet.node[2] "numProcessedPerChannel(node 3):vector" ETV
vector 43 simpleNet.node[2] "numProcessedPerChannel(node 4):vector" ETV
vector 44 simpleNet.node[2] "numSentPerChannel(node 0):vector" ETV
vector 45 simpleNet.node[2] "numSentPerChannel(node 1):vector" ETV
vector 46 simpleNet.node[2] "numSentPerChannel(node 2):vector" ETV
vector 47 simpleNet.node[2] "numSentPerChannel(node 3):vector" ETV
vector 48 simpleNet.node[2] "numSentPerChannel(node 4):vector" ETV
vector 49 simpleNet.node[3] "numAttemptedPerDest_Total(dest node 0):vector" ETV
vector 50 simpleNet.node[3] "numAttemptedPerDest_Total(dest node 2):vector" ETV
vector 51 simpleNet.node[3] "numInQueuePerChannel(node 1):vector" ETV
vector 52 simpleNet.node[3] "numInQueuePerChannel(node 2):vector" ETV
vector 53 simpleNet.node[3] "numInQueuePerChannel(node 4):vector" ETV
vector 54 simpleNet.node[3] "balancePerChannel(node 1):vector" ETV
vector 55 simpleNet.node[3] "balancePerChannel(node 2):vector" ETV
vector 56 simpleNet.node[3] "balancePerChannel(node 4):vector" ETV
vector 57 simpleNet.node[3] "numProcessedPerChannel(node 0):vector" ETV
vector 58 simpleNet.node[3] "numProcessedPerChannel(node 1):vector" ETV
vector 59 simpleNet.node[3] "numProcessedPerChannel(node 2):vector" ETV
vector 60 simpleNet.node[3] "numProcessedPerChannel(node 3):vector" ETV
vector 61 simpleNet.node[3] "numProcessedPerChannel(node 4):vector" ETV
vector 62 simpleNet.node[3] "numSentPerChannel(node 0):vector" ETV
vector 63 simpleNet.node[3] "numSentPerChannel(node 1):vector" ETV
vector 64 simpleNet.node[3] "numSentPerChannel(node 2):vector" ETV
vector 65 simpleNet.node[3] "numSentPerChannel(node 3):vector" ETV
vector 66 simpleNet.node[3] "numSentPerChannel(node 4):vector" ETV
vector 67 simpleNet.node[4] "numAttemptedPerDest_Total(dest node 2):vector" ETV
vector 68 simpleNet.node[4] "numInQueuePerChannel(node 0):vector" ETV
vector 69 simpleNet.node[4] "numInQueuePerChannel(node 3):vector" ETV
vector 70 simpleNet.node[4] "balancePerChannel(node 0):vector" ETV
vector 71 simpleNet.node[4] "balancePerChannel(node 3):vector" ETV
vector 72 simpleNet.node[4] "numProcessedPerChannel(node 0):vector" ETV
vector 73 simpleNet.node[4] "numProcessedPerChannel(node 1):vector" ETV
vector 74 simpleNet.node[4] "numProcessedPerChannel(node 2):vector" ETV
vector 75 simpleNet.node[4] "numProcessedPerChannel(node 3):vector" ETV
vector 76 simpleNet.node[4] "numProcessedPerChannel(node 4):vector" ETV
vector 77 simpleNet.node[4] "numSentPerChannel(node 0):vector" ETV
vector 78 simpleNet.node[4] "numSentPerChannel(node 1):vector" ETV
vector 79 simpleNet.node[4] "numSentPerChannel(node 2):vector" ETV
vector 80 simpleNet.node[4] "numSentPerChannel(node 3):vector" ETV
vector 81 simpleNet.node[4] "numSentPerChannel(node 4):vector" ETV
vector 82 simpleNet.node[0] completionTime:vector ETV
attr interpolationmode none
attr source completionTime
attr title "completionTime, vector"
vector 83 simpleNet.node[0] "numCompletedPerDest_Total(dest node 4):vector" ETV
vector 84 simpleNet.node[0] "numCompletedPerDest_Total(dest node 1):vector" ETV
vector 85 simpleNet.node[1] completionTime:vector ETV
attr interpolationmode none
attr source completionTime
attr title "completionTime, vector"
vector 86 simpleNet.node[1] "numCompletedPerDest_Total(dest node 3):vector" ETV
vector 87 simpleNet.node[2] completionTime:vector ETV
attr interpolationmode none
attr source completionTime
attr title "completionTime, vector"
vector 88 simpleNet.node[2] "numCompletedPerDest_Total(dest node 1):vector" ETV
vector 89 simpleNet.node[3] completionTime:vector ETV
attr interpolationmode none
attr source completionTime
attr title "completionTime, vector"
vector 90 simpleNet.node[3] "numCompletedPerDest_Total(dest node 2):vector" ETV
vector 91 simpleNet.node[2] "numCompletedPerDest_Total(dest node 4):vector" ETV
vector 92 simpleNet.node[3] "numCompletedPerDest_Total(dest node 0):vector" ETV
vector 93 simpleNet.node[4] completionTime:vector ETV
attr interpolationmode none
attr source completionTime
attr title "completionTime, vector"
vector 94 simpleNet.node[4] "numCompletedPerDest_Total(dest node 2):vector" ETV
0	1	0	1
0	18	0.02	2
0	38	0.04	3
0	62	0.06	4
0	98	0.08	5
0	142	0.1	6
0	190	0.12	7
0	248	0.14	8
0	309	0.16	9
0	372	0.18	10
0	435	0.2	11
0	498	0.22	12
0	561	0.24	13
0	624	0.26	14
0	687	0.28	15
0	750	0.3	16
0	813	0.32	17
0	876	0.34	18
0	939	0.36	19
0	1002	0.38	20
0	1065	0.4	21
0	1128	0.42	22
0	1191	0.44	23
0	1254	0.46	24
0	1317	0.48	25
0	1380	0.5	26
0	1448	0.52	27
0	1511	0.54	28
0	1574	0.56	29
0	1637	0.58	30
0	1700	0.6	31
0	1763	0.62	32
0	1826	0.64	33
0	1889	0.66	34
0	1952	0.68	35
0	2015	0.7	36
0	2078	0.72	37
0	2141	0.74	38
0	2204	0.76	39
0	2267	0.78	40
0	2330	0.8	41
0	2393	0.82	42
0	2456	0.84	43
0	2519	0.86	44
0	2582	0.88	45
0	2645	0.9	46
0	2708	0.92	47
0	2771	0.94	48
0	2834	0.96	49
0	2897	0.98	50
0	2960	1	51
0	3028	1.02	52
0	3091	1.04	53
0	3154	1.06	54
0	3217	1.08	55
0	3280	1.1	56
0	3343	1.12	57
0	3406	1.14	58
0	3469	1.16	59
0	3532	1.18	60
0	3595	1.2	61
0	3658	1.22	62
0	3721	1.24	63
0	3784	1.26	64
0	3847	1.28	65
0	3910	1.3	66
0	3973	1.32	67
0	4036	1.34	68
0	4099	1.36	69
0	4162	1.38	70
0	4225	1.4	71
0	4288	1.42	72
0	4351	1.44	73
0	4414	1.46	74
0	4477	1.48	75
0	4540	1.5	76
0	4608	1.52	77
0	4671	1.54	78
0	4734	1.56	79
0	4797	1.58	80
0	4860	1.6	81
0	4923	1.62	82
0	4986	1.64	83
0	5049	1.66	84
0	5112	1.68	85
0	5175	1.7	86
0	5238	1.72	87
0	5301	1.74	88
0	5364	1.76	89
0	5426	1.78	90
0	5487	1.8	91
0	5548	1.82	92
0	5608	1.84	93
0	5666	1.86	94
0	5726	1.88	95
0	5786	1.9	96
0	5844	1.92	97
0	5903	1.94	98
0	5962	1.96	99
0	6016	1.98	100
0	6072	2	101
0	6132	2.02	102
0	6177	2.04	103
0	6227	2.06	104
0	6273	2.08	105
0	6307	2.1	106
0	6348	2.12	107
0	6388	2.14	108
0	6419	2.16	109
0	6458	2.18	110
0	6497	2.2	111
0	6528	2.22	112
0	6566	2.24	113
0	6602	2.26	114
0	6633	2.28	115
0	6669	2.3	116
0	6705	2.32	117
0	6736	2.34	118
0	6770	2.36	119
0	6803	2.38	120
0	6834	2.4	121
0	6868	2.42	122
0	6902	2.44	123
0	6933	2.46	124
0	6966	2.48	125
0	6999	2.5	126
0	7035	2.52	127
0	7068	2.54	128
0	7101	2.56	129
0	7132	2.58	130
0	7164	2.6	131
0	7196	2.62	132
0	7227	2.64	133
0	7259	2.66	134
0	7291	2.68	135
0	7322	2.7	136
0	7353	2.72	137
0	7384	2.74	138
0	7415	2.76	139
0	7446	2.78	140
0	7477	2.8	141
0	7508	2.82	142
0	7539	2.84	143
0	7570	2.86	144
0	7601	2.88	145
0	7632	2.9	146
0	7663	2.92	147
0	7694	2.94	148
0	7725	2.96	149
0	7756	2.98	150
0	7787	3	151
0	7823	3.02	152
0	7854	3.04	153
0	7885	3.06	154
0	7916	3.08	155
0	7947	3.1	156
0	7978	3.12	157
0	8009	3.14	158
0	8040	3.16	159
0	8071	3.18	160
0	8102	3.2	161
0	8133	3.22	162
0	8164	3.24	163
0	8195	3.26	164
0	8226	3.28	165
0	8257	3.3	166
0	8288	3.32	167
0	8319	3.34	168
0	8350	3.36	169
0	8381	3.38	170
0	8412	3.4	171
0	8443	3.42	172
0	8474	3.44	173
0	8505	3.46	174
0	8536	3.48	175
0	8567	3.5	176
0	8603	3.52	177
0	8634	3.54	178
0	8665	3.56	179
0	8696	3.58	180
0	8727	3.6	181
0	8758	3.62	182
0	8789	3.64	183
0	8820	3.66	184
0	8851	3.68	185
0	8882	3.7	186
0	8913	3.72	187
0	8944	3.74	188
0	8975	3.76	189
0	9006	3.78	190
0	9037	3.8	191
0	9068	3.82	192
0	9098	3.84	193
0	9128	3.86	194
0	9157	3.88	195
0	9185	3.9	196
0	9213	3.92	197
0	9241	3.94	198
0	9269	3.96	199
0	9297	3.98	200
0	9325	4	201
0	9357	4.02	202
0	9383	4.04	203
0	9409	4.06	204
0	9435	4.08	205
0	9461	4.1	206
0	9487	4.12	207
0	9513	4.14	208
0	9539	4.16	209
0	9565	4.18	210
0	9591	4.2	211
0	9617	4.22	212
0	9643	4.24	213
0	9669	4.26	214
0	9695	4.28	215
0	9721	4.3	216
0	9747	4.32	217
0	9773	4.34	218
0	9799	4.36	219
0	9825	4.38	220
0	9851	4.4	221
0	9877	4.42	222
0	9903	4.44	223
0	9929	4.46	224
0	9955	4.48	225
0	9981	4.5	226
0	10012	4.52	227
0	10038	4.54	228
0	10064	4.56	229
0	10090	4.58	230
0	10116	4.6	231
0	10142	4.62	232
0	10168	4.64	233
0	10194	4.66	234
0	10220	4.68	235
0	10246	4.7	236
0	10272	4.72	237
0	10298	4.74	238
0	10324	4.76	239
0	10350	4.78	240
0	10376	4.8	241
0	10402	4.82	242
0	10428	4.84	243
0	10454	4.86	244
0	10480	4.88	245
0	10506	4.9	246
0	10532	4.92	247
0	10558	4.94	248
0	10584	4.96	249
0	10610	4.98	250
0	10636	5	251
0	10667	5.02	252
0	10693	5.04	253
0	10719	5.06	254
0	10745	5.08	255
0	10771	5.1	256
0	10797	5.12	257
0	10823	5.14	258
0	10849	5.16	259
0	10875	5.18	260
0	10901	5.2	261
0	10927	5.22	262
0	10953	5.24	263
0	10979	5.26	264
0	11005	5.28	265
0	11031	5.3	266
0	11057	5.32	267
0	11083	5.34	268
0	11109	5.36	269
0	11135	5.38	270
0	11161	5.4	271
0	11187	5.42	272
0	11213	5.44	273
0	11239	5.46	274
0	11265	5.48	275
0	11291	5.5	276
0	11322	5.52	277
0	11348	5.54	278
0	11374	5.56	279
0	11400	5.58	280
0	11426	5.6	281
0	11452	5.62	282
0	11478	5.64	283
0	11504	5.66	284
0	11530	5.68	285
0	11556	5.7	286
0	11582	5.72	287
0	11608	5.74	288
0	11633	5.76	289
0	11658	5.78	290
0	11683	5.8	291
0	11708	5.82	292
0	11733	5.84	293
0	11758	5.86	294
0	11783	5.88	295
0	11808	5.9	296
0	11833	5.92	297
0	11858	5.94	298
0	11883	5.96	299
0	11908	5.98	300
0	11932	6	301
0	11961	6.02	302
0	11985	6.04	303
0	12009	6.06	304
0	12033	6.08	305
0	12057	6.1	306
0	12081	6.12	307
0	12105	6.14	308
0	12129	6.16	309
0	12153	6.18	310
0	12177	6.2	311
0	12201	6.22	312
0	12225	6.24	313
0	12249	6.26	314
0	12273	6.28	315
0	12297	6.3	316
0	12321	6.32	317
0	12345	6.34	318
0	12369	6.36	319
0	12393	6.38	320
0	12417	6.4	321
0	12441	6.42	322
0	12465	6.44	323
0	12489	6.46	324
0	12513	6.48	325
0	12537	6.5	326
0	12566	6.52	327
0	12590	6.54	328
0	12614	6.56	329
0	12638	6.58	330
0	12662	6.6	331
0	12686	6.62	332
0	12710	6.64	333
0	12734	6.66	334
0	12758	6.68	335
0	12782	6.7	336
0	12806	6.72	337
0	12830	6.74	338
0	12854	6.76	339
0	12878	6.78	340
0	12902	6.8	341
0	12926	6.82	342
0	12950	6.84	343
0	12974	6.86	344
0	12998	6.88	345
0	13022	6.9	346
0	13046	6.92	347
0	13070	6.94	348
0	13094	6.96	349
0	13118	6.98	350
0	13142	7	351
0	13171	7.02	352
0	13195	7.04	353
0	13219	7.06	354
0	13243	7.08	355
0	13267	7.1	356
0	13291	7.12	357
0	13315	7.14	358
0	13339	7.16	359
0	13363	7.18	360
0	13387	7.2	361
0	13411	7.22	362
0	13435	7.24	363
0	13459	7.26	364
0	13483	7.28	365
0	13507	7.3	366
0	13531	7.32	367
0	13555	7.34	368
0	13579	7.36	369
0	13603	7.38	370
0	13627	7.4	371
0	13651	7.42	372
0	13675	7.44	373
0	13699	7.46	374
0	13723	7.48	375
0	13747	7.5	376
0	13776	7.52	377
0	13800	7.54	378
0	13824	7.56	379
0	13848	7.58	380
0	13872	7.6	381
0	13896	7.62	382
0	13920	7.64	383
0	13944	7.66	384
0	13968	7.68	385
0	13992	7.7	386
0	14016	7.72	387
0	14040	7.74	388
0	14064	7.76	389
0	14088	7.78	390
0	14112	7.8	391
0	14136	7.82	392
0	14160	7.84	393
0	14184	7.86	394
0	14208	7.88	395
0	14232	7.9	396
0	14256	7.92	397
0	14280	7.94	398
0	14304	7.96	399
0	14328	7.98	400
0	14352	8	401
0	14381	8.02	402
0	14405	8.04	403
0	14429	8.06	404
0	14453	8.08	405
0	14477	8.1	406
0	14501	8.12	407
0	14525	8.14	408
0	14549	8.16	409
0	14573	8.18	410
0	14597	8.2	411
0	14621	8.22	412
0	14645	8.24	413
0	14669	8.26	414
0	14693	8.28	415
0	14717	8.3	416
0	14741	8.32	417
0	14765	8.34	418
0	14789	8.36	419
0	14813	8.38	420
0	14837	8.4	421
0	14861	8.42	422
0	14885	8.44	423
0	14909	8.46	424
0	14933	8.48	425
0	14957	8.5	426
0	14986	8.52	427
0	15010	8.54	428
0	15034	8.56	429
0	15058	8.58	430
0	15082	8.6	431
0	15106	8.62	432
0	15130	8.64	433
0	15154	8.66	434
0	15178	8.68	435
0	15202	8.7	436
0	15226	8.72	437
0	15250	8.74	438
0	15274	8.76	439
0	15298	8.78	440
0	15322	8.8	441
0	15346	8.82	442
0	15370	8.84	443
0	15394	8.86	444
0	15418	8.88	445
0	15442	8.9	446
0	15466	8.92	447
0	15490	8.94	448
0	15514	8.96	449
0	15538	8.98	450
0	15562	9	451
0	15591	9.02	452
0	15615	9.04	453
0	15639	9.06	454
0	15663	9.08	455
0	15687	9.1	456
0	15711	9.12	457
0	15735	9.14	458
0	15759	9.16	459
0	15783	9.18	460
0	15807	9.2	461
0	15831	9.22	462
0	15855	9.24	463
0	15879	9.26	464
0	15903	9.28	465
0	15927	9.3	466
0	15951	9.32	467
0	15975	9.34	468
0	15999	9.36	469
0	16023	9.38	470
0	16047	9.4	471
0	16071	9.42	472
0	16095	9.44	473
0	16119	9.46	474
0	16143	9.48	475
0	16167	9.5	476
0	16196	9.52	477
0	16220	9.54	478
0	16244	9.56	479
0	16268	9.58	480
0	16292	9.6	481
0	16316	9.62	482
0	16340	9.64	483
0	16364	9.66	484
0	16388	9.68	485
0	16412	9.7	486
0	16436	9.72	487
0	16460	9.74	488
0	16484	9.76	489
0	16508	9.78	490
0	16532	9.8	491
0	16556	9.82	492
0	16580	9.84	493
0	16604	9.86	494
0	16628	9.88	495
0	16652	9.9	496
0	16676	9.92	497
0	16700	9.94	498
0	16724	9.96	499
0	16748	9.98	500
0	16772	10	501
0	16801	10.02	502
0	16825	10.04	503
0	16849	10.06	504
0	16873	10.08	505
0	16897	10.1	506
0	16921	10.12	507
0	16945	10.14	508
0	16969	10.16	509
0	16993	10.18	510
0	17017	10.2	511
0	17041	10.22	512
0	17065	10.24	513
0	17089	10.26	514
0	17113	10.28	515
0	17137	10.3	516
0	17161	10.32	517
0	17185	10.34	518
0	17209	10.36	519
0	17233	10.38	520
0	17257	10.4	521
0	17281	10.42	522
0	17305	10.44	523
0	17329	10.46	524
0	17353	10.48	525
0	17377	10.5	526
0	17406	10.52	527
0	17430	10.54	528
0	17454	10.56	529
0	17478	10.58	530
0	17502	10.6	531
0	17526	10.62	532
0	17550	10.64	533
0	17574	10.66	534
0	17598	10.68	535
0	17622	10.7	536
0	17646	10.72	537
0	17670	10.74	538
0	17694	10.76	539
0	17718	10.78	540
0	17742	10.8	541
0	17766	10.82	542
0	17790	10.84	543
0	17814	10.86	544
0	17838	10.88	545
0	17862	10.9	546
0	17886	10.92	547
0	17910	10.94	548
0	17934	10.96	549
0	17958	10.98	550
0	17982	11	551
0	18011	11.02	552
0	18035	11.04	553
0	18059	11.06	554
0	18083	11.08	555
0	18107	11.1	556
0	18131	11.12	557
0	18155	11.14	558
0	18179	11.16	559
0	18203	11.18	560
0	18227	11.2	561
0	18251	11.22	562
0	18275	11.24	563
0	18299	11.26	564
0	18323	11.28	565
0	18347	11.3	566
0	18371	11.32	567
0	18395	11.34	568
0	18419	11.36	569
0	18443	11.38	570
0	18467	11.4	571
0	18491	11.42	572
0	18515	11.44	573
0	18539	11.46	574
0	18563	11.48	575
0	18587	11.5	576
0	18616	11.52	577
0	18640	11.54	578
0	18664	11.56	579
0	18688	11.58	580
0	18712	11.6	581
0	18736	11.62	582
0	18760	11.64	583
0	18784	11.66	584
0	18808	11.68	585
0	18832	11.7	586
0	18856	11.72	587
0	18880	11.74	588
0	18904	11.76	589
0	18928	11.78	590
0	18952	11.8	591
0	18976	11.82	592
0	19000	11.84	593
0	19024	11.86	594
0	19048	11.88	595
0	19072	11.9	596
0	19096	11.92	597
0	19120	11.94	598
0	19144	11.96	599
0	19168	11.98	600
0	19192	12	601
0	19221	12.02	602
0	19245	12.04	603
0	19269	12.06	604
0	19293	12.08	605
0	19317	12.1	606
0	19341	12.12	607
0	19365	12.14	608
0	19389	12.16	609
0	19413	12.18	610
0	19437	12.2	611
0	19461	12.22	612
0	19485	12.24	613
0	19509	12.26	614
0	19533	12.28	615
0	19557	12.3	616
0	19581	12.32	617
0	19605	12.34	618
0	19629	12.36	619
0	19653	12.38	620
0	19677	12.4	621
0	19701	12.42	622
0	19725	12.44	623
0	19749	12.46	624
0	19773	12.48	625
0	19797	12.5	626
0	19826	12.52	627
0	19850	12.54	628
0	19874	12.56	629
0	19898	12.58	630
0	19922	12.6	631
0	19946	12.62	632
0	19970	12.64	633
0	19994	12.66	634
0	20018	12.68	635
0	20042	12.7	636
0	20066	12.72	637
0	20090	12.74	638
0	20114	12.76	639
0	20138	12.78	640
0	20162	12.8	641
0	20186	12.82	642
0	20210	12.84	643
0	20234	12.86	644
0	20258	12.88	645
0	20282	12.9	646
0	20306	12.92	647
0	20330	12.94	648
0	20354	12.96	649
0	20378	12.98	650
0	20402	13	651
0	20431	13.02	652
0	20455	13.04	653
0	20479	13.06	654
0	20503	13.08	655
0	20527	13.1	656
0	20551	13.12	657
0	20575	13.14	658
0	20599	13.16	659
0	20623	13.18	660
0	20647	13.2	661
0	20671	13.22	662
0	20695	13.24	663
0	20719	13.26	664
0	20743	13.28	665
0	20767	13.3	666
0	20791	13.32	667
0	20815	13.34	668
0	20839	13.36	669
0	20863	13.38	670
0	20887	13.4	671
0	20911	13.42	672
0	20935	13.44	673
0	20959	13.46	674
0	20983	13.48	675
0	21007	13.5	676
0	21036	13.52	677
0	21060	13.54	678
0	21084	13.56	679
0	21108	13.58	680
0	21132	13.6	681
0	21156	13.62	682
0	21180	13.64	683
0	21204	13.66	684
0	21228	13.68	685
0	21252	13.7	686
0	21276	13.72	687
0	21300	13.74	688
0	21324	13.76	689
0	21348	13.78	690
0	21372	13.8	691
0	21396	13.82	692
0	21420	13.84	693
0	21444	13.86	694
0	21468	13.88	695
0	21492	13.9	696
0	21516	13.92	697
0	21540	13.94	698
0	21564	13.96	699
0	21588	13.98	700
0	21612	14	701
0	21641	14.02	702
0	21665	14.04	703
0	21689	14.06	704
0	21713	14.08	705
0	21737	14.1	706
0	21761	14.12	707
0	21785	14.14	708
0	21809	14.16	709
0	21833	14.18	710
0	21857	14.2	711
0	21881	14.22	712
0	21905	14.24	713
0	21929	14.26	714
0	21953	14.28	715
0	21977	14.3	716
0	22001	14.32	717
0	22025	14.34	718
0	22049	14.36	719
0	22073	14.38	720
0	22097	14.4	721
0	22121	14.42	722
0	22145	14.44	723
0	22169	14.46	724
0	22193	14.48	725
0	22217	14.5	726
0	22246	14.52	727
0	22270	14.54	728
0	22294	14.56	729
0	22318	14.58	730
0	22342	14.6	731
0	22366	14.62	732
0	22390	14.64	733
0	22414	14.66	734
0	22438	14.68	735
0	22462	14.7	736
0	22486	14.72	737
0	22510	14.74	738
0	22534	14.76	739
0	22558	14.78	740
0	22582	14.8	741
0	22606	14.82	742
0	22630	14.84	743
0	22654	14.86	744
0	22678	14.88	745
0	22702	14.9	746
0	22726	14.92	747
0	22750	14.94	748
0	22774	14.96	749
0	22798	14.98	750
0	22822	15	751
0	22851	15.02	752
0	22875	15.04	753
0	22899	15.06	754
0	22923	15.08	755
0	22947	15.1	756
0	22971	15.12	757
0	22995	15.14	758
0	23019	15.16	759
0	23043	15.18	760
0	23067	15.2	761
0	23091	15.22	762
0	23115	15.24	763
0	23139	15.26	764
0	23163	15.28	765
0	23187	15.3	766
0	23211	15.32	767
0	23235	15.34	768
0	23259	15.36	769
0	23283	15.38	770
0	23307	15.4	771
0	23331	15.42	772
0	23355	15.44	773
0	23379	15.46	774
0	23403	15.48	775
0	23427	15.5	776
0	23456	15.52	777
0	23480	15.54	778
0	23504	15.56	779
0	23528	15.58	780
0	23552	15.6	781
0	23576	15.62	782
0	23600	15.64	783
0	23624	15.66	784
0	23648	15.68	785
0	23672	15.7	786
0	23696	15.72	787
0	23720	15.74	788
0	23744	15.76	789
0	23768	15.78	790
0	23792	15.8	791
0	23816	15.82	792
0	23840	15.84	793
0	23864	15.86	794
0	23888	15.88	795
0	23912	15.9	796
0	23936	15.92	797
0	23960	15.94	798
0	23984	15.96	799
0	24008	15.98	800
0	24032	16	801
0	24061	16.02	802
0	24085	16.04	803
0	24109	16.06	804
0	24133	16.08	805
0	24157	16.1	806
0	24181	16.12	807
0	24205	16.14	808
0	24229	16.16	809
0	24253	16.18	810
0	24277	16.2	811
0	24301	16.22	812
0	24325	16.24	813
0	24349	16.26	814
0	24373	16.28	815
0	24397	16.3	816
0	24421	16.32	817
0	24445	16.34	818
0	24469	16.36	819
0	24493	16.38	820
0	24517	16.4	821
0	24541	16.42	822
0	24565	16.44	823
0	24589	16.46	824
0	24613	16.48	825
0	24637	16.5	826
0	24666	16.52	827
0	24690	16.54	828
0	24714	16.56	829
0	24738	16.58	830
0	24762	16.6	831
0	24786	16.62	832
0	24810	16.64	833
0	24834	16.66	834
0	24858	16.68	835
0	24882	16.7	836
0	24906	16.72	837
0	24930	16.74	838
0	24954	16.76	839
0	24978	16.78	840
0	25002	16.8	841
0	25026	16.82	842
0	25050	16.84	843
0	25074	16.86	844
0	25098	16.88	845
0	25122	16.9	846
0	25146	16.92	847
0	25170	16.94	848
0	25194	16.96	849
0	25218	16.98	850
0	25242	17	851
0	25271	17.02	852
0	25295	17.04	853
0	25319	17.06	854
0	25343	17.08	855
0	25367	17.1	856
0	25391	17.12	857
0	25415	17.14	858
0	25439	17.16	859
0	25463	17.18	860
0	25487	17.2	861
0	25511	17.22	862
0	25535	17.24	863
0	25559	17.26	864
0	25583	17.28	865
0	25607	17.3	866
0	25631	17.32	867
0	25655	17.34	868
0	25679	17.36	869
0	25703	17.38	870
0	25727	17.4	871
0	25751	17.42	872
0	25775	17.44	873
0	25799	17.46	874
0	25823	17.48	875
0	25847	17.5	876
0	25876	17.52	877
0	25900	17.54	878
0	25924	17.56	879
0	25948	17.58	880
0	25972	17.6	881
0	25996	17.62	882
0	26020	17.64	883
0	26044	17.66	884
0	26068	17.68	885
0	26092	17.7	886
0	26116	17.72	887
0	26140	17.74	888
0	26164	17.76	889
0	26188	17.78	890
0	26212	17.8	891
0	26236	17.82	892
0	26260	17.84	893
0	26284	17.86	894
0	26308	17.88	895
0	26332	17.9	896
0	26356	17.92	897
0	26380	17.94	898
0	26404	17.96	899
0	26428	17.98	900
0	26452	18	901
0	26481	18.02	902
0	26505	18.04	903
0	26529	18.06	904
0	26553	18.08	905
0	26577	18.1	906
0	26601	18.12	907
0	26625	18.14	908
0	26649	18.16	909
0	26673	18.18	910
0	26697	18.2	911
0	26721	18.22	912
0	26745	18.24	913
0	26769	18.26	914
0	26793	18.28	915
0	26817	18.3	916
0	26841	18.32	917
0	26865	18.34	918
0	26889	18.36	919
0	26913	18.38	920
0	26937	18.4	921
0	26961	18.42	922
0	26985	18.44	923
0	27009	18.46	924
0	27033	18.48	925
0	27057	18.5	926
0	27086	18.52	927
0	27110	18.54	928
0	27134	18.56	929
0	27158	18.58	930
0	27182	18.6	931
0	27206	18.62	932
0	27230	18.64	933
0	27254	18.66	934
0	27278	18.68	935
0	27302	18.7	936
0	27326	18.72	937
0	27350	18.74	938
0	27374	18.76	939
0	27398	18.78	940
0	27422	18.8	941
0	27446	18.82	942
0	27470	18.84	943
0	27494	18.86	944
0	27518	18.88	945
0	27542	18.9	946
0	27566	18.92	947
0	27590	18.94	948
0	27614	18.96	949
0	27638	18.98	950
0	27662	19	951
0	27691	19.02	952
0	27715	19.04	953
0	27739	19.06	954
0	27763	19.08	955
0	27787	19.1	956
0	27811	19.12	957
0	27835	19.14	958
0	27859	19.16	959
0	27883	19.18	960
0	27907	19.2	961
0	27931	19.22	962
0	27955	19.24	963
0	27979	19.26	964
0	28003	19.28	965
0	28027	19.3	966
0	28051	19.32	967
0	28075	19.34	968
0	28099	19.36	969
0	28123	19.38	970
0	28147	19.4	971
0	28171	19.42	972
0	28195	19.44	973
0	28219	19.46	974
0	28243	19.48	975
0	28267	19.5	976
0	28296	19.52	977
0	28320	19.54	978
0	28344	19.56	979
0	28368	19.58	980
0	28392	19.6	981
0	28416	19.62	982
0	28440	19.64	983
0	28464	19.66	984
0	28488	19.68	985
0	28512	19.7	986
0	28536	19.72	987
0	28560	19.74	988
0	28584	19.76	989
0	28608	19.78	990
0	28632	19.8	991
0	28656	19.82	992
0	28680	19.84	993
0	28704	19.86	994
0	28728	19.88	995
0	28752	19.9	996
0	28776	19.92	997
0	28800	19.94	998
0	28824	19.96	999
0	28848	19.98	1000
0	28872	20	1001
0	28901	20.02	1002
0	28925	20.04	1003
0	28949	20.06	1004
0	28973	20.08	1005
0	28997	20.1	1006
0	29021	20.12	1007
0	29045	20.14	1008
0	29069	20.16	1009
0	29093	20.18	1010
0	29117	20.2	1011
0	29141	20.22	1012
0	29165	20.24	1013
0	29189	20.26	1014
0	29213	20.28	1015
0	29237	20.3	1016
0	29261	20.32	1017
0	29285	20.34	1018
0	29309	20.36	1019
0	29333	20.38	1020
0	29357	20.4	1021
0	29381	20.42	1022
0	29405	20.44	1023
0	29429	20.46	1024
0	29453	20.48	1025
0	29477	20.5	1026
0	29506	20.52	1027
0	29530	20.54	1028
0	29554	20.56	1029
0	29578	20.58	1030
0	29602	20.6	1031
0	29626	20.62	1032
0	29650	20.64	1033
0	29674	20.66	1034
0	29698	20.68	1035
0	29722	20.7	1036
0	29746	20.72	1037
0	29770	20.74	1038
0	29794	20.76	1039
0	29818	20.78	1040
0	29842	20.8	1041
0	29866	20.82	1042
0	29890	20.84	1043
0	29914	20.86	1044
0	29938	20.88	1045
0	29962	20.9	1046
0	29986	20.92	1047
0	30010	20.94	1048
0	30034	20.96	1049
0	30058	20.98	1050
0	30082	21	1051
0	30111	21.02	1052
0	30135	21.04	1053
0	30159	21.06	1054
0	30183	21.08	1055
0	30207	21.1	1056
0	30231	21.12	1057
0	30255	21.14	1058
0	30279	21.16	1059
0	30303	21.18	1060
0	30327	21.2	1061
0	30351	21.22	1062
0	30375	21.24	1063
0	30399	21.26	1064
0	30423	21.28	1065
0	30447	21.3	1066
0	30471	21.32	1067
0	30495	21.34	1068
0	30519	21.36	1069
0	30543	21.38	1070
0	30567	21.4	1071
0	30591	21.42	1072
0	30615	21.44	1073
0	30639	21.46	1074
0	30663	21.48	1075
0	30687	21.5	1076
0	30716	21.52	1077
0	30740	21.54	1078
0	30764	21.56	1079
0	30788	21.58	1080
0	30812	21.6	1081
0	30836	21.62	1082
0	30860	21.64	1083
0	30884	21.66	1084
0	30908	21.68	1085
0	30932	21.7	1086
0	30956	21.72	1087
0	30980	21.74	1088
0	31004	21.76	1089
0	31028	21.78	1090
0	31052	21.8	1091
0	31076	21.82	1092
0	31100	21.84	1093
0	31124	21.86	1094
0	31148	21.88	1095
0	31172	21.9	1096
0	31196	21.92	1097
0	31220	21.94	1098
0	31244	21.96	1099
0	31268	21.98	1100
0	31292	22	1101
0	31321	22.02	1102
0	31345	22.04	1103
0	31369	22.06	1104
0	31393	22.08	1105
0	31417	22.1	1106
0	31441	22.12	1107
0	31465	22.14	1108
0	31489	22.16	1109
0	31513	22.18	1110
0	31537	22.2	1111
0	31561	22.22	1112
0	31585	22.24	1113
0	31609	22.26	1114
0	31633	22.28	1115
0	31657	22.3	1116
0	31681	22.32	1117
0	31705	22.34	1118
0	31729	22.36	1119
0	31753	22.38	1120
0	31777	22.4	1121
0	31801	22.42	1122
0	31825	22.44	1123
0	31849	22.46	1124
0	31873	22.48	1125
0	31897	22.5	1126
0	31926	22.52	1127
0	31950	22.54	1128
0	31974	22.56	1129
0	31998	22.58	1130
0	32022	22.6	1131
0	32046	22.62	1132
0	32070	22.64	1133
0	32094	22.66	1134
0	32118	22.68	1135
0	32142	22.7	1136
0	32166	22.72	1137
0	32190	22.74	1138
0	32214	22.76	1139
0	32238	22.78	1140
0	32262	22.8	1141
0	32286	22.82	1142
0	32310	22.84	1143
0	32334	22.86	1144
0	32358	22.88	1145
0	32382	22.9	1146
0	32406	22.92	1147
0	32430	22.94	1148
0	32454	22.96	1149
0	32478	22.98	1150
0	32502	23	1151
0	32531	23.02	1152
0	32555	23.04	1153
0	32579	23.06	1154
0	32603	23.08	1155
0	32627	23.1	1156
0	32651	23.12	1157
0	32675	23.14	1158
0	32699	23.16	1159
0	32723	23.18	1160
0	32747	23.2	1161
0	32771	23.22	1162
0	32795	23.24	1163
0	32819	23.26	1164
0	32843	23.28	1165
0	32867	23.3	1166
0	32891	23.32	1167
0	32915	23.34	1168
0	32939	23.36	1169
0	32963	23.38	1170
0	32987	23.4	1171
0	33011	23.42	1172
0	33035	23.44	1173
0	33059	23.46	1174
0	33083	23.48	1175
0	33107	23.5	1176
0	33136	23.52	1177
0	33160	23.54	1178
0	33184	23.56	1179
0	33208	23.58	1180
0	33232	23.6	1181
0	33256	23.62	1182
0	33280	23.64	1183
0	33304	23.66	1184
0	33328	23.68	1185
0	33352	23.7	1186
0	33376	23.72	1187
0	33400	23.74	1188
0	33424	23.76	1189
0	33448	23.78	1190
0	33472	23.8	1191
0	33496	23.82	1192
0	33520	23.84	1193
0	33544	23.86	1194
0	33568	23.88	1195
0	33592	23.9	1196
0	33616	23.92	1197
0	33640	23.94	1198
0	33664	23.96	1199
0	33688	23.98	1200
0	33712	24	1201
0	33741	24.02	1202
0	33765	24.04	1203
0	33789	24.06	1204
0	33813	24.08	1205
0	33837	24.1	1206
0	33861	24.12	1207
0	33885	24.14	1208
0	33909	24.16	1209
0	33933	24.18	1210
0	33957	24.2	1211
0	33981	24.22	1212
0	34005	24.24	1213
0	34029	24.26	1214
0	34053	24.28	1215
0	34077	24.3	1216
0	34101	24.32	1217
0	34125	24.34	1218
0	34149	24.36	1219
0	34173	24.38	1220
0	34197	24.4	1221
0	34221	24.42	1222
0	34245	24.44	1223
0	34269	24.46	1224
0	34293	24.48	1225
0	34317	24.5	1226
0	34346	24.52	1227
0	34370	24.54	1228
0	34394	24.56	1229
0	34418	24.58	1230
0	34442	24.6	1231
0	34466	24.62	1232
0	34490	24.64	1233
0	34514	24.66	1234
0	34538	24.68	1235
0	34562	24.7	1236
0	34586	24.72	1237
0	34610	24.74	1238
0	34634	24.76	1239
0	34658	24.78	1240
0	34682	24.8	1241
0	34706	24.82	1242
0	34730	24.84	1243
0	34754	24.86	1244
0	34778	24.88	1245
0	34802	24.9	1246
0	34826	24.92	1247
0	34850	24.94	1248
0	34874	24.96	1249
0	34898	24.98	1250
0	34922	25	1251
0	34951	25.02	1252
0	34975	25.04	1253
0	34999	25.06	1254
0	35023	25.08	1255
0	35047	25.1	1256
0	35071	25.12	1257
0	35095	25.14	1258
0	35119	25.16	1259
0	35143	25.18	1260
0	35167	25.2	1261
0	35191	25.22	1262
0	35215	25.24	1263
0	35239	25.26	1264
0	35263	25.28	1265
0	35287	25.3	1266
0	35311	25.32	1267
0	35335	25.34	1268
0	35359	25.36	1269
0	35383	25.38	1270
0	35407	25.4	1271
0	35431	25.42	1272
0	35455	25.44	1273
0	35479	25.46	1274
0	35503	25.48	1275
0	35527	25.5	1276
0	35556	25.52	1277
0	35580	25.54	1278
0	35604	25.56	1279
0	35628	25.58	1280
0	35652	25.6	1281
0	35676	25.62	1282
0	35700	25.64	1283
0	35724	25.66	1284
0	35748	25.68	1285
0	35772	25.7	1286
0	35796	25.72	1287
0	35820	25.74	1288
0	35844	25.76	1289
0	35868	25.78	1290
0	35892	25.8	1291
0	35916	25.82	1292
0	35940	25.84	1293
0	35964	25.86	1294
0	35988	25.88	1295
0	36012	25.9	1296
0	36036	25.92	1297
0	36060	25.94	1298
0	36084	25.96	1299