version 2
run simpleNet-0-20181107-05:22:46-31290
attr configname simpleNet
attr datetime 20181107-05:22:46
attr experiment simpleNet
attr inifile omnetpp.ini
attr iterationvars ""
attr iterationvarsf ""
attr measurement ""
attr network simpleNet
attr processid 31290
attr repetition 0
attr replication #0
attr resultdir results
attr runnumber 0
attr seedset 0

vector 0 simpleNet.node[0] numInQueue:vector ETV
attr interpolationmode none
attr source numInQueue
attr title "total num in queue, vector"
vector 1 simpleNet.node[0] numProcessed:vector ETV
attr interpolationmode none
attr source numProcessed
attr title "num processed in statRate time, vector"
vector 2 simpleNet.node[1] numInQueue:vector ETV
attr interpolationmode none
attr source numInQueue
attr title "total num in queue, vector"
vector 3 simpleNet.node[1] numProcessed:vector ETV
attr interpolationmode none
attr source numProcessed
attr title "num processed in statRate time, vector"
vector 4 simpleNet.node[2] numInQueue:vector ETV
attr interpolationmode none
attr source numInQueue
attr title "total num in queue, vector"
vector 5 simpleNet.node[2] numProcessed:vector ETV
attr interpolationmode none
attr source numProcessed
attr title "num processed in statRate time, vector"
vector 6 simpleNet.node[3] numInQueue:vector ETV
attr interpolationmode none
attr source numInQueue
attr title "total num in queue, vector"
vector 7 simpleNet.node[3] numProcessed:vector ETV
attr interpolationmode none
attr source numProcessed
attr title "num processed in statRate time, vector"
vector 8 simpleNet.node[0] completionTime:vector ETV
attr interpolationmode none
attr source completionTime
attr title "completionTime, vector"
vector 9 simpleNet.node[3] completionTime:vector ETV
attr interpolationmode none
attr source completionTime
attr title "completionTime, vector"
0	2	0	0
0	2747	0.5	0
0	6231	1	0
0	9699	1.5	0
0	13159	2	0
0	16643	2.5	0
0	20111	3	0
0	23571	3.5	0
0	27055	4	0
0	30523	4.5	0
0	33983	5	0
0	37467	5.5	0
0	40935	6	0
0	44395	6.5	0
0	47879	7	0
0	51347	7.5	0
0	54807	8	0
0	58291	8.5	0
0	61759	9	0
0	65219	9.5	0
0	68701	10	0
0	71393	10.5	0
1	2	0	0
1	2747	0.5	228
1	6231	1	340
1	9699	1.5	330
1	13159	2	330
1	16643	2.5	340
1	20111	3	330
1	23571	3.5	330
1	27055	4	340
1	30523	4.5	330
1	33983	5	330
1	37467	5.5	340
1	40935	6	330
1	44395	6.5	330
1	47879	7	340
1	51347	7.5	330
1	54807	8	330
1	58291	8.5	340
1	61759	9	330
1	65219	9.5	330
1	68701	10	340
1	71393	10.5	330
2	3	0	0
2	2748	0.5	30
2	6232	1	60
2	9700	1.5	90
2	13160	2	130
2	16644	2.5	160
2	20112	3	190
2	23572	3.5	230
2	27056	4	260
2	30524	4.5	290
2	33984	5	330
2	37468	5.5	360
2	40936	6	390
2	44396	6.5	430
2	47880	7	460
2	51348	7.5	490
2	54808	8	530
2	58292	8.5	560
2	61760	9	590
2	65220	9.5	630
2	68702	10	660
2	71394	10.5	502
3	3	0	0
3	2748	0.5	460
3	6232	1	674
3	9700	1.5	662
3	13160	2	664
3	16644	2.5	674
3	20112	3	662
3	23572	3.5	664
3	27056	4	674
3	30524	4.5	662
3	33984	5	664
3	37468	5.5	674
3	40936	6	662
3	44396	6.5	664
3	47880	7	674
3	51348	7.5	662
3	54808	8	664
3	58292	8.5	674
3	61760	9	662
3	65220	9.5	664
3	68702	10	674
3	71394	10.5	662
4	4	0	0
4	2749	0.5	30
4	6233	1	60
4	9701	1.5	90
4	13161	2	130
4	16645	2.5	160
4	20113	3	190
4	23573	3.5	230
4	27057	4	260
4	30525	4.5	290
4	33985	5	330
4	37469	5.5	360
4	40937	6	390
4	44397	6.5	430
4	47881	7	460
4	51349	7.5	490
4	54809	8	530
4	58293	8.5	560
4	61761	9	590
4	65221	9.5	630
4	68703	10	660
4	71395	10.5	502
5	4	0	0
5	2749	0.5	460
5	6233	1	674
5	9701	1.5	662
5	13161	2	664
5	16645	2.5	674
5	20113	3	662
5	23573	3.5	664
5	27057	4	674
5	30525	4.5	662
5	33985	5	664
5	37469	5.5	674
5	40937	6	662
5	44397	6.5	664
5	47881	7	674
5	51349	7.5	662
5	54809	8	664
5	58293	8.5	674
5	61761	9	662
5	65221	9.5	664
5	68703	10	674
5	71395	10.5	662
6	6	0	0
6	2750	0.5	0
6	6234	1	0
6	9702	1.5	0
6	13162	2	0
6	16646	2.5	0
6	20114	3	0
6	23574	3.5	0
6	27058	4	0
6	30526	4.5	0
6	33986	5	0
6	37470	5.5	0
6	40938	6	0
6	44398	6.5	0
6	47882	7	0
6	51350	7.5	0
6	54810	8	0
6	58294	8.5	0
6	61762	9	0
6	65222	9.5	0
6	68704	10	0
6	71396	10.5	0
7	6	0	0
7	2750	0.5	228
7	6234	1	340
7	9702	1.5	330
7	13162	2	330
7	16646	2.5	340
7	20114	3	330
7	23574	3.5	330
7	27058	4	340
7	30526	4.5	330
7	33986	5	330
7	37470	5.5	340
7	40938	6	330
7	44398	6.5	330
7	47882	7	340
7	51350	7.5	330
7	54810	8	330
7	58294	8.5	340
7	61762	9	330
7	65222	9.5	330
7	68704	10	340
7	71396	10.5	330
8	548	0.18	0.18
8	566	0.1825	0.18
8	582	0.185	0.18
8	598	0.1875	0.18
8	614	0.19	0.18
8	630	0.1925	0.18
8	646	0.195	0.18
8	662	0.1975	0.18
8	678	0.2	0.18
8	694	0.2025	0.18
8	710	0.205	0.18
8	726	0.2075	0.18
8	742	0.21	0.18
8	762	0.2125	0.18
8	780	0.215	0.18
8	798	0.2175	0.18
8	816	0.22	0.18
8	834	0.2225	0.18
8	852	0.225	0.18
8	870	0.2275	0.18
8	888	0.23	0.18
8	906	0.2325	0.18
8	924	0.235	0.18
8	942	0.2375	0.18
8	960	0.24	0.18
8	980	0.2425	0.18
8	998	0.245	0.18
8	1016	0.2475	0.18
8	1034	0.25	0.18
8	1052	0.2525	0.18
8	1070	0.255	0.18
8	1088	0.2575	0.18
8	1106	0.26	0.18
8	1124	0.2625	0.18
8	1142	0.265	0.18
8	1160	0.2675	0.18
8	1178	0.27	0.18
8	1198	0.2725	0.18
8	1214	0.275	0.18
8	1230	0.2775	0.18
8	1246	0.28	0.18
8	1262	0.2825	0.18
8	1278	0.285	0.18
8	1294	0.2875	0.18
8	1310	0.29	0.18
8	1326	0.2925	0.18
8	1342	0.295	0.18
8	1358	0.2975	0.18
8	1374	0.3	0.18
8	1394	0.3025	0.18
8	1588	0.33	0.205
8	1608	0.3325	0.205
8	1624	0.335	0.205
8	1640	0.3375	0.205
8	1656	0.34	0.205
8	1672	0.3425	0.205
8	1688	0.345	0.205
8	1704	0.3475	0.205
8	1720	0.35	0.205
8	1736	0.3525	0.205
8	1752	0.355	0.205
8	1768	0.3575	0.205
8	1784	0.36	0.205
8	1804	0.3625	0.205
8	1822	0.365	0.205
8	1840	0.3675	0.205
8	1858	0.37	0.205
8	1876	0.3725	0.205
8	1894	0.375	0.205
8	1912	0.3775	0.205
8	1930	0.38	0.205
8	1948	0.3825	0.205
8	1966	0.385	0.205
8	1984	0.3875	0.205
8	2002	0.39	0.205
8	2022	0.3925	0.205
8	2040	0.395	0.205
8	2058	0.3975	0.205
8	2076	0.4	0.205
8	2094	0.4025	0.205
8	2112	0.405	0.205
8	2130	0.4075	0.205
8	2148	0.41	0.205
8	2166	0.4125	0.205
8	2184	0.415	0.205
8	2202	0.4175	0.205
8	2220	0.42	0.205
8	2240	0.4225	0.205
8	2256	0.425	0.205
8	2272	0.4275	0.205
8	2288	0.43	0.205
8	2304	0.4325	0.205
8	2320	0.435	0.205
8	2336	0.4375	0.205
8	2352	0.44	0.205
8	2368	0.4425	0.205
8	2384	0.445	0.205
8	2400	0.4475	0.205
8	2416	0.45	0.205
8	2436	0.4525	0.205
8	2626	0.48	0.23
8	2646	0.4825	0.23
8	2662	0.485	0.23
8	2678	0.4875	0.23
8	2694	0.49	0.23
8	2710	0.4925	0.23
8	2726	0.495	0.23
8	2742	0.4975	0.23
8	2762	0.5	0.23
8	2778	0.5025	0.23
8	2794	0.505	0.23
8	2810	0.5075	0.23
8	2826	0.51	0.23
8	2846	0.5125	0.23
8	2864	0.515	0.23
8	2882	0.5175	0.23
8	2900	0.52	0.23
8	2918	0.5225	0.23
8	2936	0.525	0.23
8	2954	0.5275	0.23
8	2972	0.53	0.23
8	2990	0.5325	0.23
8	3008	0.535	0.23
8	3026	0.5375	0.23
8	3044	0.54	0.23
8	3064	0.5425	0.23
8	3082	0.545	0.23
8	3100	0.5475	0.23
8	3118	0.55	0.23
8	3136	0.5525	0.23
8	3154	0.555	0.23
8	3172	0.5575	0.23
8	3190	0.56	0.23
8	3208	0.5625	0.23
8	3226	0.565	0.23
8	3244	0.5675	0.23
8	3262	0.57	0.23
8	3282	0.5725	0.23
8	3298	0.575	0.23
8	3314	0.5775	0.23
8	3330	0.58	0.23
8	3346	0.5825	0.23
8	3362	0.585	0.23
8	3378	0.5875	0.23
8	3394	0.59	0.23
8	3410	0.5925	0.23
8	3426	0.595	0.23
8	3442	0.5975	0.23
8	3458	0.6	0.23
8	3478	0.6025	0.23
8	3672	0.63	0.255
8	3692	0.6325	0.255
8	3708	0.635	0.255
8	3724	0.6375	0.255
8	3740	0.64	0.255
8	3756	0.6425	0.255
8	3772	0.645	0.255
8	3788	0.6475	0.255
8	3804	0.65	0.255
8	3820	0.6525	0.255
8	3836	0.655	0.255
8	3852	0.6575	0.255
8	3868	0.66	0.255
8	3888	0.6625	0.255
8	3906	0.665	0.255
8	3924	0.6675	0.255
8	3942	0.67	0.255
8	3960	0.6725	0.255
8	3978	0.675	0.255
8	3996	0.6775	0.255
8	4014	0.68	0.255
8	4032	0.6825	0.255
8	4050	0.685	0.255
8	4068	0.6875	0.255
8	4086	0.69	0.255
8	4106	0.6925	0.255
8	4124	0.695	0.255
8	4142	0.6975	0.255
8	4160	0.7	0.255
8	4178	0.7025	0.255
8	4196	0.705	0.255
8	4214	0.7075	0.255
8	4232	0.71	0.255
8	4250	0.7125	0.255
8	4268	0.715	0.255
8	4286	0.7175	0.255
8	4304	0.72	0.255
8	4324	0.7225	0.255
8	4340	0.725	0.255
8	4356	0.7275	0.255
8	4372	0.73	0.255
8	4388	0.7325	0.255
8	4404	0.735	0.255
8	4420	0.7375	0.255
8	4436	0.74	0.255
8	4452	0.7425	0.255
8	4468	0.745	0.255
8	4484	0.7475	0.255
8	4500	0.75	0.255
8	4520	0.7525	0.255
8	4710	0.78	0.28
8	4730	0.7825	0.28
8	4746	0.785	0.28
8	4762	0.7875	0.28
8	4778	0.79	0.28
8	4794	0.7925	0.28
8	4810	0.795	0.28
8	4826	0.7975	0.28
8	4842	0.8	0.28
8	4858	0.8025	0.28
8	4874	0.805	0.28
8	4890	0.8075	0.28
8	4906	0.81	0.28
8	4926	0.8125	0.28
8	4944	0.815	0.28
8	4962	0.8175	0.28
8	4980	0.82	0.28
8	4998	0.8225	0.28
8	5016	0.825	0.28
8	5034	0.8275	0.28
8	5052	0.83	0.28
8	5070	0.8325	0.28
8	5088	0.835	0.28
8	5106	0.8375	0.28
8	5124	0.84	0.28
8	5144	0.8425	0.28
8	5162	0.845	0.28
8	5180	0.8475	0.28
8	5198	0.85	0.28
8	5216	0.8525	0.28
8	5234	0.855	0.28
8	5252	0.8575	0.28
8	5270	0.86	0.28
8	5288	0.8625	0.28
8	5306	0.865	0.28
8	5324	0.8675	0.28
8	5342	0.87	0.28
8	5362	0.8725	0.28
8	5378	0.875	0.28
8	5394	0.8775	0.28
8	5410	0.88	0.28
8	5426	0.8825	0.28
8	5442	0.885	0.28
8	5458	0.8875	0.28
8	5474	0.89	0.28
8	5490	0.8925	0.28
8	5506	0.895	0.28
8	5522	0.8975	0.28
8	5538	0.9	0.28
8	5558	0.9025	0.28
8	5752	0.93	0.305
8	5772	0.9325	0.305
8	5788	0.935	0.305
8	5804	0.9375	0.305
8	5820	0.94	0.305
8	5836	0.9425	0.305
8	5852	0.945	0.305
8	5868	0.9475	0.305
8	5884	0.95	0.305
8	5900	0.9525	0.305
8	5916	0.955	0.305
8	5932	0.9575	0.305
8	5948	0.96	0.305
8	5968	0.9625	0.305
8	5986	0.965	0.305
8	6004	0.9675	0.305
8	6022	0.97	0.305
8	6040	0.9725	0.305
8	6058	0.975	0.305
8	6076	0.9775	0.305
8	6094	0.98	0.305
8	6112	0.9825	0.305
8	6130	0.985	0.305
8	6148	0.9875	0.305
8	6166	0.99	0.305
8	6186	0.9925	0.305
8	6204	0.995	0.305
8	6222	0.9975	0.305
8	6244	1	0.305
8	6262	1.0025	0.305
8	6280	1.005	0.305
8	6298	1.0075	0.305
8	6316	1.01	0.305
8	6334	1.0125	0.305
8	6352	1.015	0.305
8	6370	1.0175	0.305
8	6388	1.02	0.305
8	6408	1.0225	0.305
8	6424	1.025	0.305
8	6440	1.0275	0.305
8	6456	1.03	0.305
8	6472	1.0325	0.305
8	6488	1.035	0.305
8	6504	1.0375	0.305
8	6520	1.04	0.305
8	6536	1.0425	0.305
8	6552	1.045	0.305
8	6568	1.0475	0.305
8	6584	1.05	0.305
8	6604	1.0525	0.305
8	6794	1.08	0.33
8	6814	1.0825	0.33
8	6830	1.085	0.33
8	6846	1.0875	0.33
8	6862	1.09	0.33
8	6878	1.0925	0.33
8	6894	1.095	0.33
8	6910	1.0975	0.33
8	6926	1.1	0.33
8	6942	1.1025	0.33
8	6958	1.105	0.33
8	6974	1.1075	0.33
8	6990	1.11	0.33
8	7010	1.1125	0.33
8	7028	1.115	0.33
8	7046	1.1175	0.33
8	7064	1.12	0.33
8	7082	1.1225	0.33
8	7100	1.125	0.33
8	7118	1.1275	0.33
8	7136	1.13	0.33
8	7154	1.1325	0.33
8	7172	1.135	0.33
8	7190	1.1375	0.33
8	7208	1.14	0.33
8	7228	1.1425	0.33
8	7246	1.145	0.33
8	7264	1.1475	0.33
8	7282	1.15	0.33
8	7300	1.1525	0.33
8	7318	1.155	0.33
8	7336	1.1575	0.33
8	7354	1.16	0.33
8	7372	1.1625	0.33
8	7390	1.165	0.33
8	7408	1.1675	0.33
8	7426	1.17	0.33
8	7446	1.1725	0.33
8	7462	1.175	0.33
8	7478	1.1775	0.33
8	7494	1.18	0.33
8	7510	1.1825	0.33
8	7526	1.185	0.33
8	7542	1.1875	0.33
8	7558	1.19	0.33
8	7574	1.1925	0.33
8	7590	1.195	0.33
8	7606	1.1975	0.33
8	7622	1.2	0.33
8	7642	1.2025	0.33
8	7836	1.23	0.355
8	7856	1.2325	0.355
8	7872	1.235	0.355
8	7888	1.2375	0.355
8	7904	1.24	0.355
8	7920	1.2425	0.355
8	7936	1.245	0.355
8	7952	1.2475	0.355
8	7968	1.25	0.355
8	7984	1.2525	0.355
8	8000	1.255	0.355
8	8016	1.2575	0.355
8	8032	1.26	0.355
8	8052	1.2625	0.355
8	8070	1.265	0.355
8	8088	1.2675	0.355
8	8106	1.27	0.355
8	8124	1.2725	0.355
8	8142	1.275	0.355
8	8160	1.2775	0.355
8	8178	1.28	0.355
8	8196	1.2825	0.355
8	8214	1.285	0.355
8	8232	1.2875	0.355
8	8250	1.29	0.355
8	8270	1.2925	0.355
8	8288	1.295	0.355
8	8306	1.2975	0.355
8	8324	1.3	0.355
8	8342	1.3025	0.355
8	8360	1.305	0.355
8	8378	1.3075	0.355
8	8396	1.31	0.355
8	8414	1.3125	0.355
8	8432	1.315	0.355
8	8450	1.3175	0.355
8	8468	1.32	0.355
8	8488	1.3225	0.355
8	8504	1.325	0.355
8	8520	1.3275	0.355
8	8536	1.33	0.355
8	8552	1.3325	0.355
8	8568	1.335	0.355
8	8584	1.3375	0.355
8	8600	1.34	0.355
8	8616	1.3425	0.355
8	8632	1.345	0.355
8	8648	1.3475	0.355
8	8664	1.35	0.355
8	8684	1.3525	0.355
8	8874	1.38	0.38
8	8894	1.3825	0.38
8	8910	1.385	0.38
8	8926	1.3875	0.38
8	8942	1.39	0.38
8	8958	1.3925	0.38
8	8974	1.395	0.38
8	8990	1.3975	0.38
8	9006	1.4	0.38
8	9022	1.4025	0.38
8	9038	1.405	0.38
8	9054	1.4075	0.38
8	9070	1.41	0.38
8	9090	1.4125	0.38
8	9108	1.415	0.38
8	9126	1.4175	0.38
8	9144	1.42	0.38
8	9162	1.4225	0.38
8	9180	1.425	0.38
8	9198	1.4275	0.38
8	9216	1.43	0.38
8	9234	1.4325	0.38
8	9252	1.435	0.38
8	9270	1.4375	0.38
8	9288	1.44	0.38
8	9308	1.4425	0.38
8	9326	1.445	0.38
8	9344	1.4475	0.38
8	9362	1.45	0.38
8	9380	1.4525	0.38
8	9398	1.455	0.38
8	9416	1.4575	0.38
8	9434	1.46	0.38
8	9452	1.4625	0.38
8	9470	1.465	0.38
8	9488	1.4675	0.38
8	9506	1.47	0.38
8	9526	1.4725	0.38
8	9542	1.475	0.38
8	9558	1.4775	0.38
8	9574	1.48	0.38
8	9590	1.4825	0.38
8	9606	1.485	0.38
8	9622	1.4875	0.38
8	9638	1.49	0.38
8	9654	1.4925	0.38
8	9670	1.495	0.38
8	9686	1.4975	0.38
8	9706	1.5	0.38
8	9726	1.5025	0.38
8	9920	1.53	0.405
8	9940	1.5325	0.405
8	9956	1.535	0.405
8	9972	1.5375	0.405
8	9988	1.54	0.405
8	10004	1.5425	0.405
8	10020	1.545	0.405
8	10036	1.5475	0.405
8	10052	1.55	0.405
8	10068	1.5525	0.405
8	10084	1.555	0.405
8	10100	1.5575	0.405
8	10116	1.56	0.405
8	10136	1.5625	0.405
8	10154	1.565	0.405
8	10172	1.5675	0.405
8	10190	1.57	0.405
8	10208	1.5725	0.405
8	10226	1.575	0.405
8	10244	1.5775	0.405
8	10262	1.58	0.405
8	10280	1.5825	0.405
8	10298	1.585	0.405
8	10316	1.5875	0.405
8	10334	1.59	0.405
8	10354	1.5925	0.405
8	10372	1.595	0.405
8	10390	1.5975	0.405
8	10408	1.6	0.405
8	10426	1.6025	0.405
8	10444	1.605	0.405
8	10462	1.6075	0.405
8	10480	1.61	0.405
8	10498	1.6125	0.405
8	10516	1.615	0.405
8	10534	1.6175	0.405
8	10552	1.62	0.405
8	10572	1.6225	0.405
8	10588	1.625	0.405
8	10604	1.6275	0.405
8	10620	1.63	0.405
8	10636	1.6325	0.405
8	10652	1.635	0.405
8	10668	1.6375	0.405
8	10684	1.64	0.405
8	10700	1.6425	0.405
8	10716	1.645	0.405
8	10732	1.6475	0.405
8	10748	1.65	0.405
8	10768	1.6525	0.405
8	10958	1.68	0.43
8	10978	1.6825	0.43
8	10994	1.685	0.43
8	11010	1.6875	0.43
8	11026	1.69	0.43
8	11042	1.6925	0.43
8	11058	1.695	0.43
8	11074	1.6975	0.43
8	11090	1.7	0.43
8	11106	1.7025	0.43
8	11122	1.705	0.43
8	11138	1.7075	0.43
8	11154	1.71	0.43
8	11174	1.7125	0.43
8	11192	1.715	0.43
8	11210	1.7175	0.43
8	11228	1.72	0.43
8	11246	1.7225	0.43
8	11264	1.725	0.43
8	11282	1.7275	0.43
8	11300	1.73	0.43
8	11318	1.7325	0.43
8	11336	1.735	0.43
8	11354	1.7375	0.43
8	11372	1.74	0.43
8	11392	1.7425	0.43
8	11410	1.745	0.43
8	11428	1.7475	0.43
8	11446	1.75	0.43
8	11464	1.7525	0.43
8	11482	1.755	0.43
8	11500	1.7575	0.43
8	11518	1.76	0.43
8	11536	1.7625	0.43
8	11554	1.765	0.43
8	11572	1.7675	0.43
8	11590	1.77	0.43
8	11610	1.7725	0.43
8	11626	1.775	0.43
8	11642	1.7775	0.43
8	11658	1.78	0.43
8	11674	1.7825	0.43
8	11690	1.785	0.43
8	11706	1.7875	0.43
8	11722	1.79	0.43
8	11738	1.7925	0.43
8	11754	1.795	0.43
8	11770	1.7975	0.43
8	11786	1.8	0.43
8	11806	1.8025	0.43
8	12000	1.83	0.455
8	12020	1.8325	0.455
8	12036	1.835	0.455
8	12052	1.8375	0.455
8	12068	1.84	0.455
8	12084	1.8425	0.455
8	12100	1.845	0.455
8	12116	1.8475	0.455
8	12132	1.85	0.455
8	12148	1.8525	0.455
8	12164	1.855	0.455
8	12180	1.8575	0.455
8	12196	1.86	0.455
8	12216	1.8625	0.455
8	12234	1.865	0.455
8	12252	1.8675	0.455
8	12270	1.87	0.455
8	12288	1.8725	0.455
8	12306	1.875	0.455
8	12324	1.8775	0.455
8	12342	1.88	0.455
8	12360	1.8825	0.455
8	12378	1.885	0.455
8	12396	1.8875	0.455
8	12414	1.89	0.455
8	12434	1.8925	0.455
8	12452	1.895	0.455
8	12470	1.8975	0.455
8	12488	1.9	0.455
8	12506	1.9025	0.455
8	12524	1.905	0.455
8	12542	1.9075	0.455
8	12560	1.91	0.455
8	12578	1.9125	0.455
8	12596	1.915	0.455
8	12614	1.9175	0.455
8	12632	1.92	0.455
8	12652	1.9225	0.455
8	12668	1.925	0.455
8	12684	1.9275	0.455
8	12700	1.93	0.455
8	12716	1.9325	0.455
8	12732	1.935	0.455
8	12748	1.9375	0.455
8	12764	1.94	0.455
8	12780	1.9425	0.455
8	12796	1.945	0.455
8	12812	1.9475	0.455
8	12828	1.95	0.455
8	12848	1.9525	0.455
8	13038	1.98	0.48
8	13058	1.9825	0.48
8	13074	1.985	0.48
8	13090	1.9875	0.48
8	13106	1.99	0.48
8	13122	1.9925	0.48
8	13138	1.995	0.48
8	13154	1.9975	0.48
8	13174	2	0.48
8	13190	2.0025	0.48
8	13206	2.005	0.48
8	13222	2.0075	0.48
8	13238	2.01	0.48
8	13258	2.0125	0.48
8	13276	2.015	0.48
8	13294	2.0175	0.48
8	13312	2.02	0.48
8	13330	2.0225	0.48
8	13348	2.025	0.48
8	13366	2.0275	0.48
8	13384	2.03	0.48
8	13402	2.0325	0.48
8	13420	2.035	0.48
8	13438	2.0375	0.48
8	13456	2.04	0.48
8	13476	2.0425	0.48
8	13494	2.045	0.48
8	13512	2.0475	0.48
8	13530	2.05	0.48
8	13548	2.0525	0.48
8	13566	2.055	0.48
8	13584	2.0575	0.48
8	13602	2.06	0.48
8	13620	2.0625	0.48
8	13638	2.065	0.48
8	13656	2.0675	0.48
8	13674	2.07	0.48
8	13694	2.0725	0.48
8	13710	2.075	0.48
8	13726	2.0775	0.48
8	13742	2.08	0.48
8	13758	2.0825	0.48
8	13774	2.085	0.48
8	13790	2.0875	0.48
8	13806	2.09	0.48
8	13822	2.0925	0.48
8	13838	2.095	0.48
8	13854	2.0975	0.48
8	13870	2.1	0.48
8	13890	2.1025	0.48
8	14084	2.13	0.505
8	14104	2.1325	0.505
8	14120	2.135	0.505
8	14136	2.1375	0.505
8	14152	2.14	0.505
8	14168	2.1425	0.505
8	14184	2.145	0.505
8	14200	2.1475	0.505
8	14216	2.15	0.505
8	14232	2.1525	0.505
8	14248	2.155	0.505
8	14264	2.1575	0.505
8	14280	2.16	0.505
8	14300	2.1625	0.505
8	14318	2.165	0.505
8	14336	2.1675	0.505
8	14354	2.17	0.505
8	14372	2.1725	0.505
8	14390	2.175	0.505
8	14408	2.1775	0.505
8	14426	2.18	0.505
8	14444	2.1825	0.505
8	14462	2.185	0.505
8	14480	2.1875	0.505
8	14498	2.19	0.505
8	14518	2.1925	0.505
8	14536	2.195	0.505
8	14554	2.1975	0.505
8	14572	2.2	0.505
8	14590	2.2025	0.505
8	14608	2.205	0.505
8	14626	2.2075	0.505
8	14644	2.21	0.505
8	14662	2.2125	0.505
8	14680	2.215	0.505
8	14698	2.2175	0.505
8	14716	2.22	0.505
8	14736	2.2225	0.505
8	14752	2.225	0.505
8	14768	2.2275	0.505
8	14784	2.23	0.505
8	14800	2.2325	0.505
8	14816	2.235	0.505
8	14832	2.2375	0.505
8	14848	2.24	0.505
8	14864	2.2425	0.505
8	14880	2.245	0.505
8	14896	2.2475	0.505
8	14912	2.25	0.505
8	14932	2.2525	0.505
8	15122	2.28	0.53
8	15142	2.2825	0.53
8	15158	2.285	0.53
8	15174	2.2875	0.53
8	15190	2.29	0.53
8	15206	2.2925	0.53
8	15222	2.295	0.53
8	15238	2.2975	0.53
8	15254	2.3	0.53
8	15270	2.3025	0.53
8	15286	2.305	0.53
8	15302	2.3075	0.53
8	15318	2.31	0.53
8	15338	2.3125	0.53
8	15356	2.315	0.53
8	15374	2.3175	0.53
8	15392	2.32	0.53
8	15410	2.3225	0.53
8	15428	2.325	0.53
8	15446	2.3275	0.53
8	15464	2.33	0.53
8	15482	2.3325	0.53
8	15500	2.335	0.53
8	15518	2.3375	0.53
8	15536	2.34	0.53
8	15556	2.3425	0.53
8	15574	2.345	0.53
8	15592	2.3475	0.53
8	15610	2.35	0.53
8	15628	2.3525	0.53
8	15646	2.355	0.53
8	15664	2.3575	0.53
8	15682	2.36	0.53
8	15700	2.3625	0.53
8	15718	2.365	0.53
8	15736	2.3675	0.53
8	15754	2.37	0.53
8	15774	2.3725	0.53
8	15790	2.375	0.53
8	15806	2.3775	0.53
8	15822	2.38	0.53
8	15838	2.3825	0.53
8	15854	2.385	0.53
8	15870	2.3875	0.53
8	15886	2.39	0.53
8	15902	2.3925	0.53
8	15918	2.395	0.53
8	15934	2.3975	0.53
8	15950	2.4	0.53
8	15970	2.4025	0.53
8	16164	2.43	0.555
8	16184	2.4325	0.555
8	16200	2.435	0.555
8	16216	2.4375	0.555
8	16232	2.44	0.555
8	16248	2.4425	0.555
8	16264	2.445	0.555
8	16280	2.4475	0.555
8	16296	2.45	0.555
8	16312	2.4525	0.555
8	16328	2.455	0.555
8	16344	2.4575	0.555
8	16360	2.46	0.555
8	16380	2.4625	0.555
8	16398	2.465	0.555
8	16416	2.4675	0.555
8	16434	2.47	0.555
8	16452	2.4725	0.555
8	16470	2.475	0.555
8	16488	2.4775	0.555
8	16506	2.48	0.555
8	16524	2.4825	0.555
8	16542	2.485	0.555
8	16560	2.4875	0.555
8	16578	2.49	0.555
8	16598	2.4925	0.555
8	16616	2.495	0.555
8	16634	2.4975	0.555
8	16656	2.5	0.555
8	16674	2.5025	0.555
8	16692	2.505	0.555
8	16710	2.5075	0.555
8	16728	2.51	0.555
8	16746	2.5125	0.555
8	16764	2.515	0.555
8	16782	2.5175	0.555
8	16800	2.52	0.555
8	16820	2.5225	0.555
8	16836	2.525	0.555
8	16852	2.5275	0.555
8	16868	2.53	0.555
8	16884	2.5325	0.555
8	16900	2.535	0.555
8	16916	2.5375	0.555
8	16932	2.54	0.555
8	16948	2.5425	0.555
8	16964	2.545	0.555
8	16980	2.5475	0.555
8	16996	2.55	0.555
8	17016	2.5525	0.555
8	17206	2.58	0.58
8	17226	2.5825	0.58
8	17242	2.585	0.58
8	17258	2.5875	0.58
8	17274	2.59	0.58
8	17290	2.5925	0.58
8	17306	2.595	0.58
8	17322	2.5975	0.58
8	17338	2.6	0.58
8	17354	2.6025	0.58
8	17370	2.605	0.58
8	17386	2.6075	0.58
8	17402	2.61	0.58
8	17422	2.6125	0.58
8	17440	2.615	0.58
8	17458	2.6175	0.58
8	17476	2.62	0.58
8	17494	2.6225	0.58
8	17512	2.625	0.58
8	17530	2.6275	0.58
8	17548	2.63	0.58
8	17566	2.6325	0.58
8	17584	2.635	0.58
8	17602	2.6375	0.58
8	17620	2.64	0.58
8	17640	2.6425	0.58
8	17658	2.645	0.58
8	17676	2.6475	0.58
8	17694	2.65	0.58
8	17712	2.6525	0.58
8	17730	2.655	0.58
8	17748	2.6575	0.58
8	17766	2.66	0.58
8	17784	2.6625	0.58
8	17802	2.665	0.58
8	17820	2.6675	0.58
8	17838	2.67	0.58
8	17858	2.6725	0.58
8	17874	2.675	0.58
8	17890	2.6775	0.58
8	17906	2.68	0.58
8	17922	2.6825	0.58
8	17938	2.685	0.58
8	17954	2.6875	0.58
8	17970	2.69	0.58
8	17986	2.6925	0.58
8	18002	2.695	0.58
8	18018	2.6975	0.58
8	18034	2.7	0.58
8	18054	2.7025	0.58
8	18248	2.73	0.605
8	18268	2.7325	0.605
8	18284	2.735	0.605
8	18300	2.7375	0.605
8	18316	2.74	0.605
8	18332	2.7425	0.605
8	18348	2.745	0.605
8	18364	2.7475	0.605
8	18380	2.75	0.605
8	18396	2.7525	0.605
8	18412	2.755	0.605
8	18428	2.7575	0.605
8	18444	2.76	0.605
8	18464	2.7625	0.605
8	18482	2.765	0.605
8	18500	2.7675	0.605
8	18518	2.77	0.605
8	18536	2.7725	0.605
8	18554	2.775	0.605
8	18572	2.7775	0.605
8	18590	2.78	0.605
8	18608	2.7825	0.605
8	18626	2.785	0.605
8	18644	2.7875	0.605
8	18662	2.79	0.605
8	18682	2.7925	0.605
8	18700	2.795	0.605
8	18718	2.7975	0.605
8	18736	2.8	0.605
8	18754	2.8025	0.605
8	18772	2.805	0.605
8	18790	2.8075	0.605
8	18808	2.81	0.605
8	18826	2.8125	0.605
8	18844	2.815	0.605
8	18862	2.8175	0.605
8	18880	2.82	0.605
8	18900	2.8225	0.605
8	18916	2.825	0.605
8	18932	2.8275	0.605
8	18948	2.83	0.605
8	18964	2.8325	0.605
8	18980	2.835	0.605
8	18996	2.8375	0.605
8	19012	2.84	0.605
8	19028	2.8425	0.605
8	19044	2.845	0.605
8	19060	2.8475	0.605
8	19076	2.85	0.605
8	19096	2.8525	0.605
8	19286	2.88	0.63
8	19306	2.8825	0.63
8	19322	2.885	0.63
8	19338	2.8875	0.63
8	19354	2.89	0.63
8	19370	2.8925	0.63
8	19386	2.895	0.63
8	19402	2.8975	0.63
8	19418	2.9	0.63
8	19434	2.9025	0.63
8	19450	2.905	0.63
8	19466	2.9075	0.63
8	19482	2.91	0.63
8	19502	2.9125	0.63
8	19520	2.915	0.63
8	19538	2.9175	0.63
8	19556	2.92	0.63
8	19574	2.9225	0.63
8	19592	2.925	0.63
8	19610	2.9275	0.63
8	19628	2.93	0.63
8	19646	2.9325	0.63
8	19664	2.935	0.63
8	19682	2.9375	0.63
8	19700	2.94	0.63
8	19720	2.9425	0.63
8	19738	2.945	0.63
8	19756	2.9475	0.63
8	19774	2.95	0.63
8	19792	2.9525	0.63
8	19810	2.955	0.63
8	19828	2.9575	0.63
8	19846	2.96	0.63
8	19864	2.9625	0.63
8	19882	2.965	0.63
8	19900	2.9675	0.63
8	19918	2.97	0.63
8	19938	2.9725	0.63
8	19954	2.975	0.63
8	19970	2.9775	0.63
8	19986	2.98	0.63
8	20002	2.9825	0.63
8	20018	2.985	0.63
8	20034	2.9875	0.63
8	20050	2.99	0.63
8	20066	2.9925	0.63
8	20082	2.995	0.63
8	20098	2.9975	0.63
8	20118	3	0.63
8	20138	3.0025	0.63
8	20332	3.03	0.655
8	20352	3.0325	0.655
8	20368	3.035	0.655
8	20384	3.0375	0.655
8	20400	3.04	0.655
8	20416	3.0425	0.655
8	20432	3.045	0.655
8	20448	3.0475	0.655
8	20464	3.05	0.655
8	20480	3.0525	0.655
8	20496	3.055	0.655
8	20512	3.0575	0.655
8	20528	3.06	0.655
8	20548	3.0625	0.655
8	20566	3.065	0.655
8	20584	3.0675	0.655
8	20602	3.07	0.655
8	20620	3.0725	0.655
8	20638	3.075	0.655
8	20656	3.0775	0.655
8	20674	3.08	0.655
8	20692	3.0825	0.655
8	20710	3.085	0.655
8	20728	3.0875	0.655
8	20746	3.09	0.655
8	20766	3.0925	0.655
8	20784	3.095	0.655
8	20802	3.0975	0.655
8	20820	3.1	0.655
8	20838	3.1025	0.655
8	20856	3.105	0.655
8	20874	3.1075	0.655
8	20892	3.11	0.655
8	20910	3.1125	0.655
8	20928	3.115	0.655
8	20946	3.1175	0.655
8	20964	3.12	0.655
8	20984	3.1225	0.655
8	21000	3.125	0.655
8	21016	3.1275	0.655
8	21032	3.13	0.655
8	21048	3.1325	0.655
8	21064	3.135	0.655
8	21080	3.1375	0.655
8	21096	3.14	0.655
8	21112	3.1425	0.655
8	21128	3.145	0.655
8	21144	3.1475	0.655
8	21160	3.15	0.655
8	21180	3.1525	0.655
8	21370	3.18	0.68
8	21390	3.1825	0.68
8	21406	3.185	0.68
8	21422	3.1875	0.68
8	21438	3.19	0.68
8	21454	3.1925	0.68
8	21470	3.195	0.68
8	21486	3.1975	0.68
8	21502	3.2	0.68
8	21518	3.2025	0.68
8	21534	3.205	0.68
8	21550	3.2075	0.68
8	21566	3.21	0.68
8	21586	3.2125	0.68
8	21604	3.215	0.68
8	21622	3.2175	0.68
8	21640	3.22	0.68
8	21658	3.2225	0.68
8	21676	3.225	0.68
8	21694	3.2275	0.68
8	21712	3.23	0.68
8	21730	3.2325	0.68
8	21748	3.235	0.68
8	21766	3.2375	0.68
8	21784	3.24	0.68
8	21804	3.2425	0.68
8	21822	3.245	0.68
8	21840	3.2475	0.68
8	21858	3.25	0.68
8	21876	3.2525	0.68
8	21894	3.255	0.68
8	21912	3.2575	0.68
8	21930	3.26	0.68
8	21948	3.2625	0.68
8	21966	3.265	0.68
8	21984	3.2675	0.68
8	22002	3.27	0.68
8	22022	3.2725	0.68
8	22038	3.275	0.68
8	22054	3.2775	0.68
8	22070	3.28	0.68
8	22086	3.2825	0.68
8	22102	3.285	0.68
8	22118	3.2875	0.68
8	22134	3.29	0.68
8	22150	3.2925	0.68
8	22166	3.295	0.68
8	22182	3.2975	0.68
8	22198	3.3	0.68
8	22218	3.3025	0.68
8	22412	3.33	0.705
8	22432	3.3325	0.705
8	22448	3.335	0.705
8	22464	3.3375	0.705
8	22480	3.34	0.705
8	22496	3.3425	0.705
8	22512	3.345	0.705
8	22528	3.3475	0.705
8	22544	3.35	0.705
8	22560	3.3525	0.705
8	22576	3.355	0.705
8	22592	3.3575	0.705
8	22608	3.36	0.705
8	22628	3.3625	0.705
8	22646	3.365	0.705
8	22664	3.3675	0.705
8	22682	3.37	0.705
8	22700	3.3725	0.705
8	22718	3.375	0.705
8	22736	3.3775	0.705
8	22754	3.38	0.705
8	22772	3.3825	0.705
8	22790	3.385	0.705
8	22808	3.3875	0.705
8	22826	3.39	0.705
8	22846	3.3925	0.705
8	22864	3.395	0.705
8	22882	3.3975	0.705
8	22900	3.4	0.705
8	22918	3.4025	0.705
8	22936	3.405	0.705
8	22954	3.4075	0.705
8	22972	3.41	0.705
8	22990	3.4125	0.705
8	23008	3.415	0.705
8	23026	3.4175	0.705
8	23044	3.42	0.705
8	23064	3.4225	0.705
8	23080	3.425	0.705
8	23096	3.4275	0.705
8	23112	3.43	0.705
8	23128	3.4325	0.705
8	23144	3.435	0.705
8	23160	3.4375	0.705
8	23176	3.44	0.705
8	23192	3.4425	0.705
8	23208	3.445	0.705
8	23224	3.4475	0.705
8	23240	3.45	0.705
8	23260	3.4525	0.705
8	23450	3.48	0.73
8	23470	3.4825	0.73
8	23486	3.485	0.73
8	23502	3.4875	0.73
8	23518	3.49	0.73
8	23534	3.4925	0.73
8	23550	3.495	0.73
8	23566	3.4975	0.73
8	23586	3.5	0.73
8	23602	3.5025	0.73
8	23618	3.505	0.73
8	23634	3.5075	0.73
8	23650	3.51	0.73
8	23670	3.5125	0.73
8	23688	3.515	0.73
8	23706	3.5175	0.73
8	23724	3.52	0.73
8	23742	3.5225	0.73
8	23760	3.525	0.73
8	23778	3.5275	0.73
8	23796	3.53	0.73
8	23814	3.5325	0.73
8	23832	3.535	0.73
8	23850	3.5375	0.73
8	23868	3.54	0.73
8	23888	3.5425	0.73
8	23906	3.545	0.73
8	23924	3.5475	0.73
8	23942	3.55	0.73
8	23960	3.5525	0.73
8	23978	3.555	0.73
8	23996	3.5575	0.73
8	24014	3.56	0.73
8	24032	3.5625	0.73
8	24050	3.565	0.73
8	24068	3.5675	0.73
8	24086	3.57	0.73
8	24106	3.5725	0.73
8	24122	3.575	0.73
8	24138	3.5775	0.73
8	24154	3.58	0.73
8	24170	3.5825	0.73
8	24186	3.585	0.73
8	24202	3.5875	0.73
8	24218	3.59	0.73
8	24234	3.5925	0.73
8	24250	3.595	0.73
8	24266	3.5975	0.73
8	24282	3.6	0.73
8	24302	3.6025	0.73
8	24496	3.63	0.755
8	24516	3.6325	0.755
8	24532	3.635	0.755
8	24548	3.6375	0.755
8	24564	3.64	0.755
8	24580	3.6425	0.755
8	24596	3.645	0.755
8	24612	3.6475	0.755
8	24628	3.65	0.755
8	24644	3.6525	0.755
8	24660	3.655	0.755
8	24676	3.6575	0.755
8	24692	3.66	0.755
8	24712	3.6625	0.755
8	24730	3.665	0.755
8	24748	3.6675	0.755
8	24766	3.67	0.755
8	24784	3.6725	0.755
8	24802	3.675	0.755
8	24820	3.6775	0.755
8	24838	3.68	0.755
8	24856	3.6825	0.755
8	24874	3.685	0.755
8	24892	3.6875	0.755
8	24910	3.69	0.755
8	24930	3.6925	0.755
8	24948	3.695	0.755
8	24966	3.6975	0.755
8	24984	3.7	0.755
8	25002	3.7025	0.755
8	25020	3.705	0.755
8	25038	3.7075	0.755
8	25056	3.71	0.755
8	25074	3.7125	0.755
8	25092	3.715	0.755
8	25110	3.7175	0.755
8	25128	3.72	0.755
8	25148	3.7225	0.755
8	25164	3.725	0.755
8	25180	3.7275	0.755
8	25196	3.73	0.755
8	25212	3.7325	0.755
8	25228	3.735	0.755
8	25244	3.7375	0.755
8	25260	3.74	0.755
8	25276	3.7425	0.755
8	25292	3.745	0.755
8	25308	3.7475	0.755
8	25324	3.75	0.755
8	25344	3.7525	0.755
8	25534	3.78	0.78
8	25554	3.7825	0.78
8	25570	3.785	0.78
8	25586	3.7875	0.78
8	25602	3.79	0.78
8	25618	3.7925	0.78
8	25634	3.795	0.78
8	25650	3.7975	0.78
8	25666	3.8	0.78
8	25682	3.8025	0.78
8	25698	3.805	0.78
8	25714	3.8075	0.78
8	25730	3.81	0.78
8	25750	3.8125	0.78
8	25768	3.815	0.78
8	25786	3.8175	0.78
8	25804	3.82	0.78
8	25822	3.8225	0.78
8	25840	3.825	0.78
8	25858	3.8275	0.78
8	25876	3.83	0.78
8	25894	3.8325	0.78
8	25912	3.835	0.78
8	25930	3.8375	0.78
8	25948	3.84	0.78
8	25968	3.8425	0.78
8	25986	3.845	0.78
8	26004	3.8475	0.78
8	26022	3.85	0.78
8	26040	3.8525	0.78
8	26058	3.855	0.78
8	26076	3.8575	0.78
8	26094	3.86	0.78
8	26112	3.8625	0.78
8	26130	3.865	0.78
8	26148	3.8675	0.78
8	26166	3.87	0.78
8	26186	3.8725	0.78
8	26202	3.875	0.78
8	26218	3.8775	0.78
8	26234	3.88	0.78
8	26250	3.8825	0.78
8	26266	3.885	0.78
8	26282	3.8875	0.78
8	26298	3.89	0.78
8	26314	3.8925	0.78
8	26330	3.895	0.78
8	26346	3.8975	0.78
8	26362	3.9	0.78
8	26382	3.9025	0.78
8	26576	3.93	0.805
8	26596	3.9325	0.805
8	26612	3.935	0.805
8	26628	3.9375	0.805
8	26644	3.94	0.805
8	26660	3.9425	0.805
8	26676	3.945	0.805
8	26692	3.9475	0.805
8	26708	3.95	0.805
8	26724	3.9525	0.805
8	26740	3.955	0.805
8	26756	3.9575	0.805
8	26772	3.96	0.805
8	26792	3.9625	0.805
8	26810	3.965	0.805
8	26828	3.9675	0.805
8	26846	3.97	0.805
8	26864	3.9725	0.805
8	26882	3.975	0.805
8	26900	3.9775	0.805
8	26918	3.98	0.805
8	26936	3.9825	0.805
8	26954	3.985	0.805
8	26972	3.9875	0.805
8	26990	3.99	0.805
8	27010	3.9925	0.805
8	27028	3.995	0.805
8	27046	3.9975	0.805
8	27068	4	0.805
8	27086	4.0025	0.805
8	27104	4.005	0.805
8	27122	4.0075	0.805
8	27140	4.01	0.805
8	27158	4.0125	0.805
8	27176	4.015	0.805
8	27194	4.0175	0.805
8	27212	4.02	0.805
8	27232	4.0225	0.805
8	27248	4.025	0.805
8	27264	4.0275	0.805
8	27280	4.03	0.805
8	27296	4.0325	0.805
8	27312	4.035	0.805
8	27328	4.0375	0.805
8	27344	4.04	0.805
8	27360	4.0425	0.805
8	27376	4.045	0.805
8	27392	4.0475	0.805
8	27408	4.05	0.805
8	27428	4.0525	0.805
8	27618	4.08	0.83
8	27638	4.0825	0.83
8	27654	4.085	0.83
8	27670	4.0875	0.83
8	27686	4.09	0.83
8	27702	4.0925	0.83
8	27718	4.095	0.83
8	27734	4.0975	0.83
8	27750	4.1	0.83
8	27766	4.1025	0.83
8	27782	4.105	0.83
8	27798	4.1075	0.83
8	27814	4.11	0.83
8	27834	4.1125	0.83
8	27852	4.115	0.83
8	27870	4.1175	0.83
8	27888	4.12	0.83
8	27906	4.1225	0.83
8	27924	4.125	0.83
8	27942	4.1275	0.83
8	27960	4.13	0.83
8	27978	4.1325	0.83
8	27996	4.135	0.83
8	28014	4.1375	0.83
8	28032	4.14	0.83
8	28052	4.1425	0.83
8	28070	4.145	0.83
8	28088	4.1475	0.83