version 2
run simpleNet-0-20181118-18:41:07-1979
attr configname simpleNet
attr datetime 20181118-18:41:07
attr experiment simpleNet
attr inifile omnetpp.ini
attr iterationvars ""
attr iterationvarsf ""
attr measurement ""
attr network simpleNet
attr processid 1979
attr repetition 0
attr replication #0
attr resultdir results
attr runnumber 0
attr seedset 0

vector 0 simpleNet.node[0] numInQueue:vector ETV
attr interpolationmode none
attr source numInQueue
attr title "total num in queue, vector"
vector 1 simpleNet.node[0] numProcessed:vector ETV
attr interpolationmode none
attr source numProcessed
attr title "num processing events in statRate time, vector"
vector 2 simpleNet.node[1] numInQueue:vector ETV
attr interpolationmode none
attr source numInQueue
attr title "total num in queue, vector"
vector 3 simpleNet.node[1] numProcessed:vector ETV
attr interpolationmode none
attr source numProcessed
attr title "num processing events in statRate time, vector"
vector 4 simpleNet.node[2] numInQueue:vector ETV
attr interpolationmode none
attr source numInQueue
attr title "total num in queue, vector"
vector 5 simpleNet.node[2] numProcessed:vector ETV
attr interpolationmode none
attr source numProcessed
attr title "num processing events in statRate time, vector"
vector 6 simpleNet.node[3] numInQueue:vector ETV
attr interpolationmode none
attr source numInQueue
attr title "total num in queue, vector"
vector 7 simpleNet.node[3] numProcessed:vector ETV
attr interpolationmode none
attr source numProcessed
attr title "num processing events in statRate time, vector"
vector 8 simpleNet.node[4] numInQueue:vector ETV
attr interpolationmode none
attr source numInQueue
attr title "total num in queue, vector"
vector 9 simpleNet.node[4] numProcessed:vector ETV
attr interpolationmode none
attr source numProcessed
attr title "num processing events in statRate time, vector"
vector 10 simpleNet.node[0] completionTime:vector ETV
attr interpolationmode none
attr source completionTime
attr title "completionTime, vector"
vector 11 simpleNet.node[1] completionTime:vector ETV
attr interpolationmode none
attr source completionTime
attr title "completionTime, vector"
vector 12 simpleNet.node[2] completionTime:vector ETV
attr interpolationmode none
attr source completionTime
attr title "completionTime, vector"
vector 13 simpleNet.node[3] completionTime:vector ETV
attr interpolationmode none
attr source completionTime
attr title "completionTime, vector"
vector 14 simpleNet.node[4] completionTime:vector ETV
attr interpolationmode none
attr source completionTime
attr title "completionTime, vector"
0	3	0	0
0	264	0.5	0
0	529	1	0
0	794	1.5	0
0	1059	2	0
0	1324	2.5	0
0	1589	3	0
0	1854	3.5	0
0	2119	4	0
0	2384	4.5	0
0	2649	5	0
0	2830	5.5	0
0	3005	6	0
0	3180	6.5	0
0	3355	7	0
0	3530	7.5	0
0	3705	8	0
0	3880	8.5	0
0	4055	9	0
0	4230	9.5	0
0	4397	10	0
0	4406	10.5	0
1	3	0	0
1	264	0.5	19
1	529	1	20
1	794	1.5	20
1	1059	2	20
1	1324	2.5	20
1	1589	3	20
1	1854	3.5	20
1	2119	4	20
1	2384	4.5	20
1	2649	5	20
1	2830	5.5	11
1	3005	6	10
1	3180	6.5	10
1	3355	7	10
1	3530	7.5	10
1	3705	8	10
1	3880	8.5	10
1	4055	9	10
1	4230	9.5	10
1	4397	10	10
1	4406	10.5	0
2	5	0	0
2	265	0.5	0
2	530	1	0
2	795	1.5	0
2	1060	2	0
2	1325	2.5	0
2	1590	3	0
2	1855	3.5	0
2	2120	4	0
2	2385	4.5	0
2	2650	5	1
2	2831	5.5	11
2	3006	6	21
2	3181	6.5	31
2	3356	7	41
2	3531	7.5	51
2	3706	8	61
2	3881	8.5	71
2	4056	9	81
2	4231	9.5	91
2	4398	10	100
2	4407	10.5	100
3	5	0	0
3	265	0.5	19
3	530	1	20
3	795	1.5	20
3	1060	2	20
3	1325	2.5	20
3	1590	3	20
3	1855	3.5	20
3	2120	4	20
3	2385	4.5	20
3	2650	5	20
3	2831	5.5	11
3	3006	6	10
3	3181	6.5	10
3	3356	7	10
3	3531	7.5	10
3	3706	8	10
3	3881	8.5	10
3	4056	9	10
3	4231	9.5	10
3	4398	10	10
3	4407	10.5	0
4	8	0	0
4	266	0.5	0
4	531	1	0
4	796	1.5	0
4	1061	2	0
4	1326	2.5	0
4	1591	3	0
4	1856	3.5	0
4	2121	4	0
4	2386	4.5	0
4	2651	5	0
4	2832	5.5	0
4	3007	6	0
4	3182	6.5	0
4	3357	7	0
4	3532	7.5	0
4	3707	8	0
4	3882	8.5	0
4	4057	9	0
4	4232	9.5	0
4	4399	10	0
4	4408	10.5	0
5	8	0	0
5	266	0.5	32
5	531	1	35
5	796	1.5	35
5	1061	2	35
5	1326	2.5	35
5	1591	3	35
5	1856	3.5	35
5	2121	4	35
5	2386	4.5	35
5	2651	5	35
5	2832	5.5	26
5	3007	6	25
5	3182	6.5	25
5	3357	7	25
5	3532	7.5	25
5	3707	8	25
5	3882	8.5	25
5	4057	9	25
5	4232	9.5	25
5	4399	10	25
5	4408	10.5	2
6	11	0	0
6	267	0.5	0
6	532	1	0
6	797	1.5	0
6	1062	2	0
6	1327	2.5	0
6	1592	3	0
6	1857	3.5	0
6	2122	4	0
6	2387	4.5	0
6	2652	5	2
6	2833	5.5	22
6	3008	6	42
6	3183	6.5	62
6	3358	7	82
6	3533	7.5	102
6	3708	8	122
6	3883	8.5	142
6	4058	9	162
6	4233	9.5	182
6	4400	10	200
6	4409	10.5	200
7	11	0	0
7	267	0.5	27
7	532	1	30
7	797	1.5	30
7	1062	2	30
7	1327	2.5	30
7	1592	3	30
7	1857	3.5	30
7	2122	4	30
7	2387	4.5	30
7	2652	5	30
7	2833	5.5	3
7	3008	6	0
7	3183	6.5	0
7	3358	7	0
7	3533	7.5	0
7	3708	8	0
7	3883	8.5	0
7	4058	9	0
7	4233	9.5	0
7	4400	10	0
7	4409	10.5	0
8	13	0	0
8	268	0.5	0
8	533	1	0
8	798	1.5	0
8	1063	2	0
8	1328	2.5	0
8	1593	3	0
8	1858	3.5	0
8	2123	4	0
8	2388	4.5	0
8	2653	5	0
8	2834	5.5	0
8	3009	6	0
8	3184	6.5	0
8	3359	7	0
8	3534	7.5	0
8	3709	8	0
8	3884	8.5	0
8	4059	9	0
8	4234	9.5	0
8	4401	10	0
8	4410	10.5	0
9	13	0	0
9	268	0.5	23
9	533	1	25
9	798	1.5	25
9	1063	2	25
9	1328	2.5	25
9	1593	3	25
9	1858	3.5	25
9	2123	4	25
9	2388	4.5	25
9	2653	5	25
9	2834	5.5	25
9	3009	6	25
9	3184	6.5	25
9	3359	7	25
9	3534	7.5	25
9	3709	8	25
9	3884	8.5	25
9	4059	9	25
9	4234	9.5	25
9	4401	10	25
9	4410	10.5	2
10	27	0.06	60
10	28	0.06	60
10	79	0.16	60
10	80	0.16	60
10	131	0.26	60
10	132	0.26	60
10	183	0.36	60
10	184	0.36	60
10	235	0.46	60
10	236	0.46	60
10	292	0.56	60
10	293	0.56	60
10	344	0.66	60
10	345	0.66	60
10	396	0.76	60
10	397	0.76	60
10	448	0.86	60
10	449	0.86	60
10	500	0.96	60
10	501	0.96	60
10	557	1.06	60
10	558	1.06	60
10	609	1.16	60
10	610	1.16	60
10	661	1.26	60
10	662	1.26	60
10	713	1.36	60
10	714	1.36	60
10	765	1.46	60
10	766	1.46	60
10	822	1.56	60
10	823	1.56	60
10	874	1.66	60
10	875	1.66	60
10	926	1.76	60
10	927	1.76	60
10	978	1.86	60
10	979	1.86	60
10	1030	1.96	60
10	1031	1.96	60
10	1087	2.06	60
10	1088	2.06	60
10	1139	2.16	60
10	1140	2.16	60
10	1191	2.26	60
10	1192	2.26	60
10	1243	2.36	60
10	1244	2.36	60
10	1295	2.46	60
10	1296	2.46	60
10	1352	2.56	60
10	1353	2.56	60
10	1404	2.66	60
10	1405	2.66	60
10	1456	2.76	60
10	1457	2.76	60
10	1508	2.86	60
10	1509	2.86	60
10	1560	2.96	60
10	1561	2.96	60
10	1617	3.06	60
10	1618	3.06	60
10	1669	3.16	60
10	1670	3.16	60
10	1721	3.26	60
10	1722	3.26	60
10	1773	3.36	60
10	1774	3.36	60
10	1825	3.46	60
10	1826	3.46	60
10	1882	3.56	60
10	1883	3.56	60
10	1934	3.66	60
10	1935	3.66	60
10	1986	3.76	60
10	1987	3.76	60
10	2038	3.86	60
10	2039	3.86	60
10	2090	3.96	60
10	2091	3.96	60
10	2147	4.06	60
10	2148	4.06	60
10	2199	4.16	60
10	2200	4.16	60
10	2251	4.26	60
10	2252	4.26	60
10	2303	4.36	60
10	2304	4.36	60
10	2355	4.46	60
10	2356	4.46	60
10	2412	4.56	60
10	2413	4.56	60
10	2464	4.66	60
10	2465	4.66	60
10	2516	4.76	60
10	2517	4.76	60
10	2568	4.86	60
10	2569	4.86	60
10	2620	4.96	60
10	2621	4.96	60
10	2674	5.06	60
10	2675	5.06	60
10	2708	5.16	60
10	2709	5.16	60
10	2742	5.26	60
10	2743	5.26	60
10	2776	5.36	60
10	2777	5.36	60
10	2810	5.46	60
10	2811	5.46	60
10	2849	5.56	60
10	2850	5.56	60
10	2883	5.66	60
10	2884	5.66	60
10	2917	5.76	60
10	2918	5.76	60
10	2951	5.86	60
10	2952	5.86	60
10	2985	5.96	60
10	2986	5.96	60
10	3024	6.06	60
10	3025	6.06	60
10	3058	6.16	60
10	3059	6.16	60
10	3092	6.26	60
10	3093	6.26	60
10	3126	6.36	60
10	3127	6.36	60
10	3160	6.46	60
10	3161	6.46	60
10	3199	6.56	60
10	3200	6.56	60
10	3233	6.66	60
10	3234	6.66	60
10	3267	6.76	60
10	3268	6.76	60
10	3301	6.86	60
10	3302	6.86	60
10	3335	6.96	60
10	3336	6.96	60
10	3374	7.06	60
10	3375	7.06	60
10	3408	7.16	60
10	3409	7.16	60
10	3442	7.26	60
10	3443	7.26	60
10	3476	7.36	60
10	3477	7.36	60
10	3510	7.46	60
10	3511	7.46	60
10	3549	7.56	60
10	3550	7.56	60
10	3583	7.66	60
10	3584	7.66	60
10	3617	7.76	60
10	3618	7.76	60
10	3651	7.86	60
10	3652	7.86	60
10	3685	7.96	60
10	3686	7.96	60
10	3724	8.06	60
10	3725	8.06	60
10	3758	8.16	60
10	3759	8.16	60
10	3792	8.26	60
10	3793	8.26	60
10	3826	8.36	60
10	3827	8.36	60
10	3860	8.46	60
10	3861	8.46	60
10	3899	8.56	60
10	3900	8.56	60
10	3933	8.66	60
10	3934	8.66	60
10	3967	8.76	60
10	3968	8.76	60
10	4001	8.86	60
10	4002	8.86	60
10	4035	8.96	60
10	4036	8.96	60
10	4074	9.06	60
10	4075	9.06	60
10	4108	9.16	60
10	4109	9.16	60
10	4142	9.26	60
10	4143	9.26	60
10	4176	9.36	60
10	4177	9.36	60
10	4210	9.46	60
10	4211	9.46	60
10	4249	9.56	60
10	4250	9.56	60
10	4283	9.66	60
10	4284	9.66	60
10	4317	9.76	60
10	4318	9.76	60
10	4351	9.86	60
10	4352	9.86	60
10	4385	9.96	60
10	4386	9.96	60
11	29	0.06	60
11	56	0.11	60
11	81	0.16	60
11	108	0.21	60
11	133	0.26	60
11	160	0.31	60
11	185	0.36	60
11	212	0.41	60
11	237	0.46	60
11	269	0.51	60
11	294	0.56	60
11	321	0.61	60
11	346	0.66	60
11	373	0.71	60
11	398	0.76	60
11	425	0.81	60
11	450	0.86	60
11	477	0.91	60
11	502	0.96	60
11	534	1.01	60
11	559	1.06	60
11	586	1.11	60
11	611	1.16	60
11	638	1.21	60
11	663	1.26	60
11	690	1.31	60
11	715	1.36	60
11	742	1.41	60
11	767	1.46	60
11	799	1.51	60
11	824	1.56	60
11	851	1.61	60
11	876	1.66	60
11	903	1.71	60
11	928	1.76	60
11	955	1.81	60
11	980	1.86	60
11	1007	1.91	60
11	1032	1.96	60
11	1064	2.01	60
11	1089	2.06	60
11	1116	2.11	60
11	1141	2.16	60
11	1168	2.21	60
11	1193	2.26	60
11	1220	2.31	60
11	1245	2.36	60
11	1272	2.41	60
11	1297	2.46	60
11	1329	2.51	60
11	1354	2.56	60
11	1381	2.61	60
11	1406	2.66	60
11	1433	2.71	60
11	1458	2.76	60
11	1485	2.81	60
11	1510	2.86	60
11	1537	2.91	60
11	1562	2.96	60
11	1594	3.01	60
11	1619	3.06	60
11	1646	3.11	60
11	1671	3.16	60
11	1698	3.21	60
11	1723	3.26	60
11	1750	3.31	60
11	1775	3.36	60
11	1802	3.41	60
11	1827	3.46	60
11	1859	3.51	60
11	1884	3.56	60
11	1911	3.61	60
11	1936	3.66	60
11	1963	3.71	60
11	1988	3.76	60
11	2015	3.81	60
11	2040	3.86	60
11	2067	3.91	60
11	2092	3.96	60
11	2124	4.01	60
11	2149	4.06	60
11	2176	4.11	60
11	2201	4.16	60
11	2228	4.21	60
11	2253	4.26	60
11	2280	4.31	60
11	2305	4.36	60
11	2332	4.41	60
11	2357	4.46	60
11	2389	4.51	60
11	2414	4.56	60
11	2441	4.61	60
11	2466	4.66	60
11	2493	4.71	60
11	2518	4.76	60
11	2545	4.81	60
11	2570	4.86	60
11	2597	4.91	60
11	2622	4.96	60
11	2654	5.01	60
12	30	0.06	60
12	31	0.06	60
12	57	0.11	60
12	82	0.16	60
12	83	0.16	60
12	109	0.21	60
12	134	0.26	60
12	135	0.26	60
12	161	0.31	60
12	186	0.36	60
12	187	0.36	60
12	213	0.41	60
12	238	0.46	60
12	239	0.46	60
12	270	0.51	60
12	295	0.56	60
12	296	0.56	60
12	322	0.61	60
12	347	0.66	60
12	348	0.66	60
12	374	0.71	60
12	399	0.76	60
12	400	0.76	60
12	426	0.81	60
12	451	0.86	60
12	452	0.86	60
12	478	0.91	60
12	503	0.96	60
12	504	0.96	60
12	535	1.01	60
12	560	1.06	60
12	561	1.06	60
12	587	1.11	60
12	612	1.16	60
12	613	1.16	60
12	639	1.21	60
12	664	1.26	60
12	665	1.26	60
12	691	1.31	60
12	716	1.36	60
12	717	1.36	60
12	743	1.41	60
12	768	1.46	60
12	769	1.46	60
12	800	1.51	60
12	825	1.56	60
12	826	1.56	60
12	852	1.61	60
12	877	1.66	60
12	878	1.66	60
12	904	1.71	60
12	929	1.76	60
12	930	1.76	60
12	956	1.81	60
12	981	1.86	60
12	982	1.86	60
12	1008	1.91	60
12	1033	1.96	60
12	1034	1.96	60
12	1065	2.01	60
12	1090	2.06	60
12	1091	2.06	60
12	1117	2.11	60
12	1142	2.16	60
12	1143	2.16	60
12	1169	2.21	60
12	1194	2.26	60
12	1195	2.26	60
12	1221	2.31	60
12	1246	2.36	60
12	1247	2.36	60
12	1273	2.41	60
12	1298	2.46	60
12	1299	2.46	60
12	1330	2.51	60
12	1355	2.56	60
12	1356	2.56	60
12	1382	2.61	60
12	1407	2.66	60
12	1408	2.66	60
12	1434	2.71	60
12	1459	2.76	60
12	1460	2.76	60
12	1486	2.81	60
12	1511	2.86	60
12	1512	2.86	60
12	1538	2.91	60
12	1563	2.96	60
12	1564	2.96	60
12	1595	3.01	60
12	1620	3.06	60
12	1621	3.06	60
12	1647	3.11	60
12	1672	3.16	60
12	1673	3.16	60
12	1699	3.21	60
12	1724	3.26	60
12	1725	3.26	60
12	1751	3.31	60
12	1776	3.36	60
12	1777	3.36	60
12	1803	3.41	60
12	1828	3.46	60
12	1829	3.46	60
12	1860	3.51	60
12	1885	3.56	60
12	1886	3.56	60
12	1912	3.61	60
12	1937	3.66	60
12	1938	3.66	60
12	1964	3.71	60
12	1989	3.76	60
12	1990	3.76	60
12	2016	3.81	60
12	2041	3.86	60
12	2042	3.86	60
12	2068	3.91	60
12	2093	3.96	60
12	2094	3.96	60
12	2125	4.01	60
12	2150	4.06	60
12	2151	4.06	60
12	2177	4.11	60
12	2202	4.16	60
12	2203	4.16	60
12	2229	4.21	60
12	2254	4.26	60
12	2255	4.26	60
12	2281	4.31	60
12	2306	4.36	60
12	2307	4.36	60
12	2333	4.41	60
12	2358	4.46	60
12	2359	4.46	60
12	2390	4.51	60
12	2415	4.56	60
12	2416	4.56	60
12	2442	4.61	60
12	2467	4.66	60
12	2468	4.66	60
12	2494	4.71	60
12	2519	4.76	60
12	2520	4.76	60
12	2546	4.81	60
12	2571	4.86	60
12	2572	4.86	60
12	2598	4.91	60
12	2623	4.96	60
12	2624	4.96	60
12	2655	5.01	60
12	2676	5.06	60
12	2677	5.06	60
12	2694	5.11	60
12	2710	5.16	60
12	2711	5.16	60
12	2728	5.21	60
12	2744	5.26	60
12	2745	5.26	60
12	2762	5.31	60
12	2778	5.36	60
12	2779	5.36	60
12	2796	5.41	60
12	2812	5.46	60
12	2813	5.46	60
12	2835	5.51	60
12	2851	5.56	60
12	2852	5.56	60
12	2869	5.61	60
12	2885	5.66	60
12	2886	5.66	60
12	2903	5.71	60
12	2919	5.76	60
12	2920	5.76	60
12	2937	5.81	60
12	2953	5.86	60
12	2954	5.86	60
12	2971	5.91	60
12	2987	5.96	60
12	2988	5.96	60
12	3010	6.01	60
12	3026	6.06	60
12	3027	6.06	60
12	3044	6.11	60
12	3060	6.16	60
12	3061	6.16	60
12	3078	6.21	60
12	3094	6.26	60
12	3095	6.26	60
12	3112	6.31	60
12	3128	6.36	60
12	3129	6.36	60
12	3146	6.41	60
12	3162	6.46	60
12	3163	6.46	60
12	3185	6.51	60
12	3201	6.56	60
12	3202	6.56	60
12	3219	6.61	60
12	3235	6.66	60
12	3236	6.66	60
12	3253	6.71	60
12	3269	6.76	60
12	3270	6.76	60
12	3287	6.81	60
12	3303	6.86	60
12	3304	6.86	60
12	3321	6.91	60
12	3337	6.96	60
12	3338	6.96	60
12	3360	7.01	60
12	3376	7.06	60
12	3377	7.06	60
12	3394	7.11	60
12	3410	7.16	60
12	3411	7.16	60
12	3428	7.21	60
12	3444	7.26	60
12	3445	7.26	60
12	3462	7.31	60
12	3478	7.36	60
12	3479	7.36	60
12	3496	7.41	60
12	3512	7.46	60
12	3513	7.46	60
12	3535	7.51	60
12	3551	7.56	60
12	3552	7.56	60
12	3569	7.61	60
12	3585	7.66	60
12	3586	7.66	60
12	3603	7.71	60
12	3619	7.76	60
12	3620	7.76	60
12	3637	7.81	60
12	3653	7.86	60
12	3654	7.86	60
12	3671	7.91	60
12	3687	7.96	60
12	3688	7.96	60
12	3710	8.01	60
12	3726	8.06	60
12	3727	8.06	60
12	3744	8.11	60
12	3760	8.16	60
12	3761	8.16	60
12	3778	8.21	60
12	3794	8.26	60
12	3795	8.26	60
12	3812	8.31	60
12	3828	8.36	60
12	3829	8.36	60
12	3846	8.41	60
12	3862	8.46	60
12	3863	8.46	60
12	3885	8.51	60
12	3901	8.56	60
12	3902	8.56	60
12	3919	8.61	60
12	3935	8.66	60
12	3936	8.66	60
12	3953	8.71	60
12	3969	8.76	60
12	3970	8.76	60
12	3987	8.81	60
12	4003	8.86	60
12	4004	8.86	60
12	4021	8.91	60
12	4037	8.96	60
12	4038	8.96	60
12	4060	9.01	60
12	4076	9.06	60
12	4077	9.06	60
12	4094	9.11	60
12	4110	9.16	60
12	4111	9.16	60
12	4128	9.21	60
12	4144	9.26	60
12	4145	9.26	60
12	4162	9.31	60
12	4178	9.36	60
12	4179	9.36	60
12	4196	9.41	60
12	4212	9.46	60
12	4213	9.46	60
12	4235	9.51	60
12	4251	9.56	60
12	4252	9.56	60
12	4269	9.61	60
12	4285	9.66	60
12	4286	9.66	60
12	4303	9.71	60
12	4319	9.76	60
12	4320	9.76	60
12	4337	9.81	60
12	4353	9.86	60
12	4354	9.86	60
12	4371	9.91	60
12	4387	9.96	60
12	4388	9.96	60
12	4402	10.01	60
13	32	0.06	60
13	33	0.06	60
13	58	0.11	60
13	59	0.11	60
13	84	0.16	60
13	85	0.16	60
13	110	0.21	60
13	111	0.21	60
13	136	0.26	60
13	137	0.26	60
13	162	0.31	60
13	163	0.31	60
13	188	0.36	60
13	189	0.36	60
13	214	0.41	60
13	215	0.41	60
13	240	0.46	60
13	241	0.46	60
13	271	0.51	60
13	272	0.51	60
13	297	0.56	60
13	298	0.56	60
13	323	0.61	60
13	324	0.61	60
13	349	0.66	60
13	350	0.66	60
13	375	0.71	60
13	376	0.71	60
13	401	0.76	60
13	402	0.76	60
13	427	0.81	60
13	428	0.81	60
13	453	0.86	60
13	454	0.86	60
13	479	0.91	60
13	480	0.91	60
13	505	0.96	60
13	506	0.96	60
13	536	1.01	60
13	537	1.01	60
13	562	1.06	60
13	563	1.06	60
13	588	1.11	60
13	589	1.11	60
13	614	1.16	60
13	615	1.16	60
13	640	1.21	60
13	641	1.21	60
13	666	1.26	60
13	667	1.26	60
13	692	1.31	60
13	693	1.31	60
13	718	1.36	60
13	719	1.36	60
13	744	1.41	60
13	745	1.41	60
13	770	1.46	60
13	771	1.46	60
13	801	1.51	60
13	802	1.51	60
13	827	1.56	60
13	828	1.56	60
13	853	1.61	60
13	854	1.61	60
13	879	1.66	60
13	880	1.66	60
13	905	1.71	60
13	906	1.71	60
13	931	1.76	60
13	932	1.76	60
13	957	1.81	60
13	958	1.81	60
13	983	1.86	60
13	984	1.86	60
13	1009	1.91	60
13	1010	1.91	60
13	1035	1.96	60
13	1036	1.96	60
13	1066	2.01	60
13	1067	2.01	60
13	1092	2.06	60
13	1093	2.06	60
13	1118	2.11	60
13	1119	2.11	60
13	1144	2.16	60
13	1145	2.16	60
13	1170	2.21	60
13	1171	2.21	60
13	1196	2.26	60
13	1197	2.26	60
13	1222	2.31	60
13	1223	2.31	60
13	1248	2.36	60
13	1249	2.36	60
13	1274	2.41	60
13	1275	2.41	60
13	1300	2.46	60
13	1301	2.46	60
13	1331	2.51	60
13	1332	2.51	60
13	1357	2.56	60
13	1358	2.56	60
13	1383	2.61	60
13	1384	2.61	60
13	1409	2.66	60
13	1410	2.66	60
13	1435	2.71	60
13	1436	2.71	60
13	1461	2.76	60
13	1462	2.76	60
13	1487	2.81	60
13	1488	2.81	60
13	1513	2.86	60
13	1514	2.86	60
13	1539	2.91	60
13	1540	2.91	60
13	1565	2.96	60
13	1566	2.96	60
13	1596	3.01	60
13	1597	3.01	60
13	1622	3.06	60
13	1623	3.06	60
13	1648	3.11	60
13	1649	3.11	60
13	1674	3.16	60
13	1675	3.16	60
13	1700	3.21	60
13	1701	3.21	60
13	1726	3.26	60
13	1727	3.26	60
13	1752	3.31	60
13	1753	3.31	60
13	1778	3.36	60
13	1779	3.36	60
13	1804	3.41	60
13	1805	3.41	60
13	1830	3.46	60
13	1831	3.46	60
13	1861	3.51	60
13	1862	3.51	60
13	1887	3.56	60
13	1888	3.56	60
13	1913	3.61	60
13	1914	3.61	60
13	1939	3.66	60
13	1940	3.66	60
13	1965	3.71	60
13	1966	3.71	60
13	1991	3.76	60
13	1992	3.76	60
13	2017	3.81	60
13	2018	3.81	60
13	2043	3.86	60
13	2044	3.86	60
13	2069	3.91	60
13	2070	3.91	60
13	2095	3.96	60
13	2096	3.96	60
13	2126	4.01	60
13	2127	4.01	60
13	2152	4.06	60
13	2153	4.06	60
13	2178	4.11	60
13	2179	4.11	60
13	2204	4.16	60
13	2205	4.16	60
13	2230	4.21	60
13	2231	4.21	60
13	2256	4.26	60
13	2257	4.26	60
13	2282	4.31	60
13	2283	4.31	60
13	2308	4.36	60
13	2309	4.36	60
13	2334	4.41	60
13	2335	4.41	60
13	2360	4.46	60
13	2361	4.46	60
13	2391	4.51	60
13	2392	4.51	60
13	2417	4.56	60
13	2418	4.56	60
13	2443	4.61	60
13	2444	4.61	60
13	2469	4.66	60
13	2470	4.66	60
13	2495	4.71	60
13	2496	4.71	60
13	2521	4.76	60
13	2522	4.76	60
13	2547	4.81	60
13	2548	4.81	60
13	2573	4.86	60
13	2574	4.86	60
13	2599	4.91	60
13	2600	4.91	60
13	2625	4.96	60
13	2626	4.96	60
13	2656	5.01	60
13	2657	5.01	60
14	34	0.06	60
14	60	0.11	60
14	86	0.16	60
14	112	0.21	60
14	138	0.26	60
14	164	0.31	60
14	190	0.36	60
14	216	0.41	60
14	242	0.46	60
14	273	0.51	60
14	299	0.56	60
14	325	0.61	60
14	351	0.66	60
14	377	0.71	60
14	403	0.76	60
14	429	0.81	60
14	455	0.86	60
14	481	0.91	60
14	507	0.96	60
14	538	1.01	60
14	564	1.06	60
14	590	1.11	60
14	616	1.16	60
14	642	1.21	60
14	668	1.26	60
14	694	1.31	60
14	720	1.36	60
14	746	1.41	60
14	772	1.46	60
14	803	1.51	60
14	829	1.56	60
14	855	1.61	60
14	881	1.66	60
14	907	1.71	60
14	933	1.76	60
14	959	1.81	60
14	985	1.86	60
14	1011	1.91	60
14	1037	1.96	60
14	1068	2.01	60
14	1094	2.06	60
14	1120	2.11	60
14	1146	2.16	60
14	1172	2.21	60
14	1198	2.26	60
14	1224	2.31	60
14	1250	2.36	60
14	1276	2.41	60
14	1302	2.46	60
14	1333	2.51	60
14	1359	2.56	60
14	1385	2.61	60
14	1411	2.66	60
14	1437	2.71	60
14	1463	2.76	60
14	1489	2.81	60
14	1515	2.86	60
14	1541	2.91	60
14	1567	2.96	60
14	1598	3.01	60
14	1624	3.06	60
14	1650	3.11	60
14	1676	3.16	60
14	1702	3.21	60
14	1728	3.26	60
14	1754	3.31	60
14	1780	3.36	60
14	1806	3.41	60
14	1832	3.46	60
14	1863	3.51	60
14	1889	3.56	60
14	1915	3.61	60
14	1941	3.66	60
14	1967	3.71	60
14	1993	3.76	60
14	2019	3.81	60
14	2045	3.86	60
14	2071	3.91	60
14	2097	3.96	60
14	2128	4.01	60
14	2154	4.06	60
14	2180	4.11	60
14	2206	4.16	60
14	2232	4.21	60
14	2258	4.26	60
14	2284	4.31	60
14	2310	4.36	60
14	2336	4.41	60
14	2362	4.46	60
14	2393	4.51	60
14	2419	4.56	60
14	2445	4.61	60
14	2471	4.66	60
14	2497	4.71	60
14	2523	4.76	60
14	2549	4.81	60
14	2575	4.86	60
14	2601	4.91	60
14	2627	4.96	60
14	2658	5.01	60
14	2678	5.06	60
14	2695	5.11	60
14	2712	5.16	60
14	2729	5.21	60
14	2746	5.26	60
14	2763	5.31	60
14	2780	5.36	60
14	2797	5.41	60
14	2814	5.46	60
14	2836	5.51	60
14	2853	5.56	60
14	2870	5.61	60
14	2887	5.66	60
14	2904	5.71	60
14	2921	5.76	60
14	2938	5.81	60
14	2955	5.86	60
14	2972	5.91	60
14	2989	5.96	60
14	3011	6.01	60
14	3028	6.06	60
14	3045	6.11	60
14	3062	6.16	60
14	3079	6.21	60
14	3096	6.26	60
14	3113	6.31	60
14	3130	6.36	60
14	3147	6.41	60
14	3164	6.46	60
14	3186	6.51	60
14	3203	6.56	60
14	3220	6.61	60
14	3237	6.66	60
14	3254	6.71	60
14	3271	6.76	60
14	3288	6.81	60
14	3305	6.86	60
14	3322	6.91	60
14	3339	6.96	60
14	3361	7.01	60
14	3378	7.06	60
14	3395	7.11	60
14	3412	7.16	60
14	3429	7.21	60
14	3446	7.26	60
14	3463	7.31	60
14	3480	7.36	60
14	3497	7.41	60
14	3514	7.46	60
14	3536	7.51	60
14	3553	7.56	60
14	3570	7.61	60
14	3587	7.66	60
14	3604	7.71	60
14	3621	7.76	60
14	3638	7.81	60
14	3655	7.86	60
14	3672	7.91	60
14	3689	7.96	60
14	3711	8.01	60
14	3728	8.06	60
14	3745	8.11	60
14	3762	8.16	60
14	3779	8.21	60
14	3796	8.26	60
14	3813	8.31	60
14	3830	8.36	60
14	3847	8.41	60
14	3864	8.46	60
14	3886	8.51	60
14	3903	8.56	60
14	3920	8.61	60
14	3937	8.66	60
14	3954	8.71	60
14	3971	8.76	60
14	3988	8.81	60
14	4005	8.86	60
14	4022	8.91	60
14	4039	8.96	60
14	4061	9.01	60
14	4078	9.06	60
14	4095	9.11	60
14	4112	9.16	60
14	4129	9.21	60
14	4146	9.26	60
14	4163	9.31	60
14	4180	9.36	60
14	4197	9.41	60
14	4214	9.46	60
14	4236	9.51	60
14	4253	9.56	60
14	4270	9.61	60
14	4287	9.66	60
14	4304	9.71	60
14	4321	9.76	60
14	4338	9.81	60
14	4355	9.86	60
14	4372	9.91	60
14	4389	9.96	60
14	4403	10.01	60

