version 2
run simpleNet-0-20181113-23:52:01-80150
attr configname simpleNet
attr datetime 20181113-23:52:01
attr experiment simpleNet
attr inifile omnetpp.ini
attr iterationvars ""
attr iterationvarsf ""
attr measurement ""
attr network simpleNet
attr processid 80150
attr repetition 0
attr replication #0
attr resultdir results
attr runnumber 0
attr seedset 0

vector 0 simpleNet.node[0] numInQueue:vector ETV
attr interpolationmode none
attr source numInQueue
attr title "total num in queue, vector"
vector 1 simpleNet.node[0] numProcessed:vector ETV
attr interpolationmode none
attr source numProcessed
attr title "num processing events in statRate, vector"
vector 2 simpleNet.node[1] numInQueue:vector ETV
attr interpolationmode none
attr source numInQueue
attr title "total num in queue, vector"
vector 3 simpleNet.node[1] numProcessed:vector ETV
attr interpolationmode none
attr source numProcessed
attr title "num processing events in statRate, vector"
vector 4 simpleNet.node[2] numInQueue:vector ETV
attr interpolationmode none
attr source numInQueue
attr title "total num in queue, vector"
vector 5 simpleNet.node[2] numProcessed:vector ETV
attr interpolationmode none
attr source numProcessed
attr title "num processing events in statRate, vector"
vector 6 simpleNet.node[3] numInQueue:vector ETV
attr interpolationmode none
attr source numInQueue
attr title "total num in queue, vector"
vector 7 simpleNet.node[3] numProcessed:vector ETV
attr interpolationmode none
attr source numProcessed
attr title "num processing events in statRate, vector"
vector 8 simpleNet.node[0] completionTime:vector ETV
attr interpolationmode none
attr source completionTime
attr title "completionTime, vector"
vector 9 simpleNet.node[3] completionTime:vector ETV
attr interpolationmode none
attr source completionTime
attr title "completionTime, vector"
0	2	0	0
0	816	0.5	0
0	1877	1	0
0	2915	1.5	0
0	3989	2	0
0	5166	2.5	0
0	6275	3	0
0	7357	3.5	0
0	8471	4	0
0	9540	4.5	0
0	10424	5	0
0	11245	5.5	0
0	12299	6	0
0	13211	6.5	0
0	14227	7	0
0	15373	7.5	0
0	16318	8	0
0	17342	8.5	0
0	18442	9	0
0	19283	9.5	0
0	20248	10	0
0	21373	10.5	0
0	22229	11	0
0	23389	11.5	0
0	24342	12	0
0	25358	12.5	0
0	26411	13	0
0	27462	13.5	0
0	28498	14	0
0	29554	14.5	0
0	30653	15	0
0	31574	15.5	0
0	32434	16	0
0	33488	16.5	0
0	34368	17	0
0	35489	17.5	0
0	36724	18	0
0	37847	18.5	0
0	39067	19	0
0	40119	19.5	0
0	41038	20	0
0	42076	20.5	0
0	42940	21	0
0	43945	21.5	0
0	45021	22	0
0	46085	22.5	0
0	47223	23	0
0	48157	23.5	0
0	49229	24	0
0	50506	24.5	0
0	51470	25	0
0	52409	25.5	0
0	53601	26	0
0	54625	26.5	0
0	55657	27	0
0	56541	27.5	0
0	57649	28	0
0	58510	28.5	0
0	59578	29	0
0	60537	29.5	0
0	61546	30	0
0	61865	30.5	0
1	2	0	0
1	816	0.5	70
1	1877	1	106
1	2915	1.5	100
1	3989	2	112
1	5166	2.5	113
1	6275	3	113
1	7357	3.5	109
1	8471	4	107
1	9540	4.5	110
1	10424	5	90
1	11245	5.5	80
1	12299	6	106
1	13211	6.5	95
1	14227	7	93
1	15373	7.5	115
1	16318	8	97
1	17342	8.5	99
1	18442	9	114
1	19283	9.5	83
1	20248	10	91
1	21373	10.5	114
1	22229	11	83
1	23389	11.5	116
1	24342	12	96
1	25358	12.5	103
1	26411	13	95
1	27462	13.5	114
1	28498	14	101
1	29554	14.5	107
1	30653	15	111
1	31574	15.5	93
1	32434	16	87
1	33488	16.5	105
1	34368	17	84
1	35489	17.5	104
1	36724	18	130
1	37847	18.5	108
1	39067	19	127
1	40119	19.5	104
1	41038	20	90
1	42076	20.5	109
1	42940	21	84
1	43945	21.5	98
1	45021	22	109
1	46085	22.5	106
1	47223	23	108
1	48157	23.5	103
1	49229	24	98
1	50506	24.5	131
1	51470	25	95
1	52409	25.5	96
1	53601	26	114
1	54625	26.5	107
1	55657	27	99
1	56541	27.5	90
1	57649	28	109
1	58510	28.5	85
1	59578	29	107
1	60537	29.5	97
1	61546	30	100
1	61865	30.5	42
2	3	0	0
2	817	0.5	0
2	1878	1	0
2	2916	1.5	0
2	3990	2	0
2	5167	2.5	0
2	6276	3	0
2	7358	3.5	0
2	8472	4	0
2	9541	4.5	0
2	10425	5	0
2	11246	5.5	0
2	12300	6	0
2	13212	6.5	0
2	14228	7	0
2	15374	7.5	0
2	16319	8	0
2	17343	8.5	0
2	18443	9	0
2	19284	9.5	0
2	20249	10	9
2	21374	10.5	13
2	22230	11	22
2	23390	11.5	20
2	24343	12	28
2	25359	12.5	38
2	26412	13	27
2	27463	13.5	16
2	28499	14	15
2	29555	14.5	0
2	30654	15	0
2	31575	15.5	0
2	32435	16	0
2	33489	16.5	0
2	34369	17	19
2	35490	17.5	24
2	36725	18	17
2	37848	18.5	16
2	39068	19	8
2	40120	19.5	10
2	41039	20	9
2	42077	20.5	0
2	42941	21	6
2	43946	21.5	5
2	45022	22	0
2	46086	22.5	0
2	47224	23	0
2	48158	23.5	0
2	49230	24	0
2	50507	24.5	0
2	51471	25	0
2	52410	25.5	0
2	53602	26	0
2	54626	26.5	0
2	55658	27	1
2	56542	27.5	5
2	57650	28	8
2	58511	28.5	11
2	59579	29	5
2	60538	29.5	0
2	61547	30	5
2	61866	30.5	0
3	3	0	0
3	817	0.5	140
3	1878	1	215
3	2916	1.5	201
3	3990	2	219
3	5167	2.5	231
3	6276	3	221
3	7358	3.5	217
3	8472	4	218
3	9541	4.5	223
3	10425	5	177
3	11246	5.5	162
3	12300	6	208
3	13212	6.5	187
3	14228	7	192
3	15374	7.5	233
3	16319	8	188
3	17343	8.5	202
3	18443	9	218
3	19284	9.5	172
3	20249	10	180
3	21374	10.5	227
3	22230	11	170
3	23390	11.5	230
3	24343	12	190
3	25359	12.5	206
3	26412	13	200
3	27463	13.5	219
3	28499	14	200
3	29555	14.5	214
3	30654	15	222
3	31575	15.5	192
3	32435	16	170
3	33489	16.5	210
3	34369	17	172
3	35490	17.5	210
3	36725	18	248
3	37848	18.5	225
3	39068	19	250
3	40120	19.5	216
3	41039	20	176
3	42077	20.5	219
3	42941	21	165
3	43946	21.5	196
3	45022	22	216
3	46086	22.5	209
3	47224	23	225
3	48158	23.5	196
3	49230	24	206
3	50507	24.5	261
3	51471	25	190
3	52410	25.5	191
3	53602	26	224
3	54626	26.5	213
3	55658	27	202
3	56542	27.5	182
3	57650	28	220
3	58511	28.5	169
3	59579	29	208
3	60538	29.5	201
3	61547	30	197
3	61866	30.5	83
4	4	0	0
4	818	0.5	0
4	1879	1	0
4	2917	1.5	0
4	3991	2	0
4	5168	2.5	0
4	6277	3	0
4	7359	3.5	0
4	8473	4	0
4	9542	4.5	0
4	10426	5	0
4	11247	5.5	0
4	12301	6	0
4	13213	6.5	0
4	14229	7	0
4	15375	7.5	0
4	16320	8	0
4	17344	8.5	0
4	18444	9	0
4	19285	9.5	0
4	20250	10	0
4	21375	10.5	0
4	22231	11	0
4	23391	11.5	0
4	24344	12	0
4	25360	12.5	0
4	26413	13	0
4	27464	13.5	0
4	28500	14	0
4	29556	14.5	0
4	30655	15	0
4	31576	15.5	0
4	32436	16	0
4	33490	16.5	0
4	34370	17	0
4	35491	17.5	0
4	36726	18	0
4	37849	18.5	0
4	39069	19	0
4	40121	19.5	0
4	41040	20	0
4	42078	20.5	0
4	42942	21	0
4	43947	21.5	0
4	45023	22	0
4	46087	22.5	0
4	47225	23	0
4	48159	23.5	0
4	49231	24	0
4	50508	24.5	0
4	51472	25	0
4	52411	25.5	0
4	53603	26	0
4	54627	26.5	0
4	55659	27	0
4	56543	27.5	0
4	57651	28	0
4	58512	28.5	0
4	59580	29	0
4	60539	29.5	0
4	61548	30	0
4	61867	30.5	0
5	4	0	0
5	818	0.5	142
5	1879	1	215
5	2917	1.5	197
5	3991	2	218
5	5168	2.5	235
5	6277	3	224
5	7359	3.5	216
5	8473	4	216
5	9542	4.5	216
5	10426	5	183
5	11247	5.5	159
5	12301	6	210
5	13213	6.5	185
5	14229	7	195
5	15375	7.5	229
5	16320	8	193
5	17344	8.5	199
5	18444	9	225
5	19285	9.5	172
5	20250	10	175
5	21375	10.5	231
5	22231	11	166
5	23391	11.5	230
5	24344	12	187
5	25360	12.5	208
5	26413	13	204
5	27464	13.5	212
5	28500	14	209
5	29556	14.5	213
5	30655	15	224
5	31576	15.5	187
5	32436	16	167
5	33490	16.5	218
5	34370	17	160
5	35491	17.5	213
5	36726	18	259
5	37849	18.5	222
5	39069	19	244
5	40121	19.5	207
5	41040	20	185
5	42078	20.5	216
5	42942	21	169
5	43947	21.5	196
5	45023	22	219
5	46087	22.5	208
5	47225	23	222
5	48159	23.5	202
5	49231	24	201
5	50508	24.5	258
5	51472	25	194
5	52411	25.5	189
5	53603	26	232
5	54627	26.5	212
5	55659	27	202
5	56543	27.5	176
5	57651	28	218
5	58512	28.5	172
5	59580	29	210
5	60539	29.5	191
5	61548	30	200
5	61867	30.5	87
6	6	0	0
6	819	0.5	0
6	1880	1	0
6	2918	1.5	0
6	3992	2	0
6	5169	2.5	0
6	6278	3	0
6	7360	3.5	0
6	8474	4	0
6	9543	4.5	0
6	10427	5	0
6	11248	5.5	0
6	12302	6	0
6	13214	6.5	0
6	14230	7	0
6	15376	7.5	0
6	16321	8	0
6	17345	8.5	0
6	18445	9	0
6	19286	9.5	0
6	20251	10	0
6	21376	10.5	0
6	22232	11	0
6	23392	11.5	0
6	24345	12	0
6	25361	12.5	0
6	26414	13	0
6	27465	13.5	0
6	28501	14	0
6	29557	14.5	0
6	30656	15	0
6	31577	15.5	0
6	32437	16	0
6	33491	16.5	0
6	34371	17	0
6	35492	17.5	0
6	36727	18	0
6	37850	18.5	0
6	39070	19	0
6	40122	19.5	0
6	41041	20	0
6	42079	20.5	0
6	42943	21	0
6	43948	21.5	0
6	45024	22	0
6	46088	22.5	0
6	47226	23	0
6	48160	23.5	0
6	49232	24	0
6	50509	24.5	0
6	51473	25	0
6	52412	25.5	0
6	53604	26	0
6	54628	26.5	0
6	55660	27	0
6	56544	27.5	0
6	57652	28	0
6	58513	28.5	0
6	59581	29	0
6	60540	29.5	0
6	61549	30	0
6	61868	30.5	0
7	6	0	0
7	819	0.5	70
7	1880	1	107
7	2918	1.5	100
7	3992	2	110
7	5169	2.5	118
7	6278	3	108
7	7360	3.5	110
7	8474	4	110
7	9543	4.5	107
7	10427	5	91
7	11248	5.5	82
7	12302	6	104
7	13214	6.5	91
7	14230	7	98
7	15376	7.5	116
7	16321	8	95
7	17345	8.5	99
7	18445	9	111
7	19286	9.5	88
7	20251	10	86
7	21376	10.5	115
7	22232	11	84
7	23392	11.5	115
7	24345	12	94
7	25361	12.5	103
7	26414	13	104
7	27465	13.5	104
7	28501	14	104
7	29557	14.5	108
7	30656	15	110
7	31577	15.5	97
7	32437	16	82
7	33491	16.5	107
7	34371	17	84
7	35492	17.5	104
7	36727	18	127
7	37850	18.5	113
7	39070	19	123
7	40122	19.5	108
7	41041	20	89
7	42079	20.5	107
7	42943	21	84
7	43948	21.5	97
7	45024	22	110
7	46088	22.5	107
7	47226	23	109
7	48160	23.5	99
7	49232	24	101
7	50509	24.5	134
7	51473	25	92
7	52412	25.5	97
7	53604	26	112
7	54628	26.5	109
7	55660	27	99
7	56544	27.5	88
7	57652	28	114
7	58513	28.5	85
7	59581	29	104
7	60540	29.5	96
7	61549	30	99
7	61868	30.5	43
8	169	0.18	180
8	180	0.183350994493	180
8	191	0.190418662275	180
8	198	0.194446598991	180
8	240	0.212443714975	180
8	261	0.224583527063	180
8	275	0.228283093767	180
8	282	0.231729302192	180
8	331	0.25617508412	180
8	334	0.256559809704	180
8	342	0.25960574065	180
8	364	0.269112900124	180
8	385	0.278160323113	180
8	390	0.281118156038	180
8	406	0.289642507887	180
8	429	0.299219159274	180
8	437	0.300313552996	180
8	439	0.301523959351	180
8	459	0.313872322365	180
8	490	0.329087074042	180
8	525	0.347403790132	180
8	544	0.357041153369	180
8	551	0.359574773309	180
8	583	0.378395776773	180
8	620	0.39695910733	180
8	636	0.406562612667	180
8	652	0.412616588772	180
8	655	0.413627932948	180
8	659	0.415313409049	180
8	663	0.417017945534	180
8	733	0.458311703176	180
8	756	0.470602166619	180
8	782	0.487720433814	180
8	785	0.488090614418	180
8	857	0.518290947426	180
8	862	0.520876978908	180
8	868	0.522322537637	180
8	880	0.527647665507	180
8	909	0.537780997511	180
8	918	0.543345203139	180
8	942	0.55387877803	180
8	953	0.557994937479	180
8	964	0.560315528713	180
8	1006	0.581560621581	180
8	1017	0.58587611285	180
8	1021	0.588691049648	180
8	1095	0.623329825612	180
8	1098	0.624295436676	180
8	1101	0.624571343412	180
8	1134	0.64179328774	180
8	1150	0.6495785921	180
8	1189	0.667778562161	180
8	1203	0.672981210943	180
8	1210	0.674721609676	180
8	1241	0.691301542231	180
8	1248	0.694539677049	180
8	1262	0.699753081226	180
8	1264	0.700111957357	180
8	1278	0.710765486943	180
8	1300	0.720277828757	180
8	1319	0.728707241519	180
8	1321	0.72880399752	180
8	1332	0.734450433831	180
8	1367	0.755429946119	180
8	1399	0.773223060535	180
8	1429	0.790244989853	180
8	1439	0.794554411764	180
8	1463	0.811094308151	180
8	1513	0.834241708363	180
8	1518	0.838580485011	180
8	1527	0.843911928297	180
8	1550	0.852041687657	180
8	1639	0.88849631637	180
8	1643	0.89168162998	180
8	1652	0.893554552761	180
8	1662	0.902599938855	180
8	1688	0.911340612331	180
8	1691	0.913446402485	180
8	1693	0.913654781504	180
8	1706	0.91677931598	180
8	1740	0.933951865314	180
8	1749	0.936745542017	180
8	1762	0.943938000613	180
8	1775	0.948301390016	180
8	1788	0.954101678966	180
8	1809	0.966245940408	180
8	1833	0.977858973608	180
8	1926	1.025873225664	180
8	1930	1.027428263458	180
8	1932	1.027536171331	180
8	1953	1.034539835305	180
8	1957	1.036291113901	180
8	1974	1.046750388757	180
8	1977	1.048594299232	180
8	1985	1.050995206113	180
8	1987	1.052254568038	180
8	1989	1.052736941631	180
8	2003	1.05916434458	180
8	2019	1.065348331317	180
8	2026	1.068724667235	180
8	2036	1.072641401149	180
8	2112	1.112808178397	180
8	2123	1.118137095672	180
8	2131	1.12145384523	180
8	2171	1.143786192988	180
8	2199	1.157061429021	180
8	2217	1.167134141593	180
8	2244	1.18	180
8	2253	1.18225586753	180
8	2267	1.18964094872	180
8	2269	1.18965107039	180
8	2317	1.21109466584	180
8	2320	1.2122001926	180
8	2327	1.21352583098	180
8	2339	1.22057801754	180
8	2347	1.22526316761	180
8	2373	1.23390848395	180
8	2380	1.2363298513	180
8	2396	1.24444027951	180
8	2425	1.26037483474	180
8	2427	1.26043916018	180
8	2437	1.26495070508	180
8	2443	1.26821666186	180
8	2498	1.3014230712	180
8	2507	1.30711579895	180
8	2514	1.3094397612	180
8	2524	1.31328492031	180
8	2540	1.32455802952	180
8	2549	1.33264107284	180
8	2562	1.33965223022	180
8	2591	1.35266026021	180
8	2636	1.37720280959	180
8	2657	1.38620031916	180
8	2690	1.40147245798	180
8	2724	1.41632033437	180
8	2746	1.42809426643	180
8	2776	1.43922678974	180
8	2839	1.46862033734	180
8	2883	1.48887262573	180
8	2968	1.51986855017	180
8	2972	1.52026266748	180
8	2983	1.52621396699	180
8	3021	1.53884674862	180
8	3025	1.54038917913	180
8	3027	1.54055965472	180
8	3029	1.54087710724	180
8	3054	1.55139772661	180
8	3074	1.56040840064	180
8	3092	1.56559805602	180
8	3121	1.57607587778	180
8	3128	1.58108244996	180
8	3160	1.59204552231	180
8	3204	1.61571952038	180
8	3206	1.61602903123	180
8	3216	1.6189108673	180
8	3223	1.62135506003	180
8	3228	1.6221747773	180
8	3249	1.6321359965	180
8	3255	1.63485280576	180
8	3280	1.64889605944	180
8	3296	1.65458352738	180
8	3311	1.65987358502	180
8	3315	1.66186244077	180
8	3365	1.68509333077	180
8	3370	1.68775279637	180
8	3379	1.69148887388	180
8	3393	1.69824904194	180
8	3395	1.69898903088	180
8	3399	1.69946547052	180
8	3469	1.73244583341	180
8	3480	1.74321247586	180
8	3484	1.743571883	180
8	3497	1.74918018137	180
8	3512	1.75804684146	180
8	3562	1.78476445684	180
8	3567	1.78644375331	180
8	3602	1.80671807839	180
8	3608	1.80948425336	180
8	3623	1.81631411447	180
8	3637	1.82053426552	180
8	3664	1.83556791738	180
8	3678	1.84279677866	180
8	3697	1.84956196652	180
8	3725	1.86360974053	180
8	3727	1.86438626654	180
8	3756	1.87923340039	180
8	3763	1.88173596657	180
8	3780	1.8909378757	180
8	3811	1.90808818761	180
8	3851	1.92819574201	180
8	3853	1.92833394584	180
8	3858	1.93275995573	180
8	3873	1.94256616901	180
8	3914	1.96312767432	180
8	3923	1.96654513428	180
8	3972	1.99268485136	180
8	3994	2.00018544046	180
8	4022	2.01117172534	180
8	4037	2.01785466961	180
8	4078	2.03967068663	180
8	4080	2.04016640704	180
8	4094	2.04592712428	180
8	4149	2.07123887364	180
8	4162	2.07646732912	180
8	4226	2.10292474966	180
8	4230	2.10501284199	180
8	4235	2.10651596198	180
8	4240	2.1085738815	180
8	4297	2.1309364518	180
8	4370	2.15914373088	180
8	4383	2.16732465944	180
8	4417	2.18	180
8	4422	2.18076776019	180
8	4479	2.20576901953	180
8	4489	2.20898233361	180
8	4506	2.21174414093	180
8	4543	2.22965287566	180
8	4638	2.26355348496	180
8	4666	2.27368042127	180
8	4669	2.27477491496	180
8	4673	2.27583812392	180
8	4750	2.30677226593	180
8	4757	2.31013853903	180
8	4764	2.31371917114	180
8	4775	2.31751963536	180
8	4789	2.32231572557	180
8	4828	2.34284382135	180
8	4845	2.34841683467	180
8	4861	2.35760994954	180
8	4865	2.35999072974	180
8	4883	2.36876659071	180
8	4953	2.40305788907	180
8	4979	2.41393104664	180
8	4982	2.41465753073	180
8	4994	2.42041251106	180
8	5046	2.44224635262	180
8	5110	2.4710995453	180
8	5128	2.48113861836	180
8	5176	2.50388255834	180
8	5183	2.50723741595	180
8	5195	2.5128657963	180
8	5203	2.51753128591	180
8	5219	2.52541069416	180
8	5242	2.53399987954	180
8	5275	2.55018186119	180
8	5284	2.55423472045	180
8	5294	2.55632294405	180
8	5320	2.56629001314	180
8	5329	2.56891312258	180
8	5337	2.5713716779	180
8	5341	2.57322861656	180
8	5347	2.57508122251	180
8	5355	2.58105831235	180
8	5364	2.5842468188	180
8	5380	2.58949410917	180
8	5392	2.59471404475	180
8	5405	2.60069886075	180
8	5407	2.60111501093	180
8	5483	2.63992972583	180
8	5485	2.64000137077	180
8	5501	2.64820060298	180
8	5568	2.68136150705	180
8	5572	2.68240761755	180
8	5581	2.68413012643	180
8	5597	2.69343821843	180
8	5605	2.69887250538	180
8	5611	2.70272024338	180
8	5634	2.70969155028	180
8	5637	2.71109368779	180
8	5645	2.71289499174	180
8	5649	2.71374365586	180
8	5663	2.71751450576	180
8	5676	2.72375769583	180
8	5700	2.73545569304	180
8	5744	2.74954446765	180
8	5753	2.75494455877	180
8	5788	2.77140544266	180
8	5850	2.80183654566	180
8	5922	2.83655165598	180
8	5932	2.84029392091	180
8	5954	2.85376312903	180
8	5967	2.85770169402	180
8	5974	2.8612858191	180
8	6004	2.872080261	180
8	6012	2.8753987214	180
8	6024	2.88367033395	180
8	6034	2.88619424709	180
8	6047	2.89207051846	180
8	6060	2.8963495384	180
8	6062	2.89686553776	180
8	6088	2.90803325113	180
8	6104	2.91604729794	180
8	6119	2.92289912743	180
8	6131	2.92802723116	180
8	6133	2.92928056306	180
8	6135	2.92957832081	180
8	6148	2.93398137231	180
8	6196	2.96015131648	180
8	6214	2.96883151824	180
8	6239	2.9829918736	180
8	6242	2.98539064461	180
8	6292	3.00613443517	180
8	6349	3.03446746346	180
8	6362	3.04030333857	180
8	6369	3.04189163287	180
8	6372	3.0422958748	180
8	6376	3.04551545658	180
8	6403	3.05790643015	180
8	6423	3.06651821715	180
8	6444	3.07557516307	180
8	6455	3.07960442985	180
8	6475	3.08846761828	180
8	6490	3.09468943216	180
8	6497	3.09807157459	180
8	6501	3.10089900984	180
8	6543	3.11750307143	180
8	6548	3.1194524615	180
8	6566	3.12660851931	180
8	6572	3.1310118504	180
8	6602	3.14270653046	180
8	6604	3.14465527427	180
8	6612	3.14735399115	180
8	6627	3.15278722088	180
8	6642	3.15937885267	180
8	6650	3.16494253721	180
8	6653	3.16618013898	180
8	6658	3.16687395819	180
8	6690	3.18	180
8	6778	3.22364213342	180
8	6786	3.22701682613	180
8	6792	3.22888147297	180
8	6839	3.25164975812	180
8	6848	3.25624311827	180
8	6859	3.2607718269	180
8	6861	3.26141551624	180
8	6886	3.26993138004	180
8	6913	3.2868766128	180
8	6941	3.29929535322	180
8	6995	3.32551937132	180
8	7005	3.3293594317	180
8	7024	3.34113578113	180
8	7026	3.34175932935	180
8	7062	3.35538931938	180
8	7076	3.36513775011	180
8	7093	3.37406907607	180
8	7109	3.37898285078	180
8	7118	3.38283169446	180
8	7121	3.3837408191	180
8	7123	3.38428984562	180
8	7143	3.39530052229	180
8	7145	3.39543138664	180
8	7169	3.40740545316	180
8	7182	3.41228967903	180
8	7192	3.41461937559	180
8	7195	3.41551486295	180
8	7199	3.41710943423	180
8	7209	3.42674577978	180
8	7226	3.43531547491	180
8	7233	3.43764925445	180
8	7235	3.43780454923	180
8	7248	3.44353374912	180
8	7301	3.4719829917	180
8	7343	3.49587628768	180
8	7347	3.49676576793	180
8	7390	3.51712671016	180
8	7397	3.52052992169	180
8	7423	3.53194251276	180
8	7427	3.53457504756	180
8	7457	3.54751491943	180
8	7472	3.55410236413	180
8	7504	3.57295407822	180
8	7510	3.57457220328	180
8	7524	3.57946566387	180
8	7555	3.59489360319	180
8	7593	3.6096201173	180
8	7617	3.62328589123	180
8	7630	3.62777504428	180
8	7638	3.63169427181	180
8	7651	3.63533568011	180
8	7654	3.63597731028	180
8	7668	3.64249465155	180
8	7671	3.64310356046	180
8	7695	3.6543565036	180
8	7736	3.67059905698	180
8	7745	3.67336708221	180
8	7749	3.67643849336	180
8	7753	3.6782765437	180
8	7811	3.70250893181	180
8	7841	3.71842860112	180
8	7844	3.71942856387	180
8	7861	3.72414712541	180
8	7871	3.73040319156	180
8	7906	3.74988849393	180
8	7939	3.76872350159	180
8	7945	3.76964888139	180
8	7964	3.77899509829	180
8	7972	3.7821722759	180
8	8017	3.80379227674	180
8	8021	3.80431515573	180
8	8025	3.8061383055	180
8	8051	3.81598574366	180
8	8056	3.81726584469	180
8	8066	3.82311719585	180
8	8085	3.83218677666	180
8	8097	3.83651613042	180
8	8112	3.84358443631	180
8	8117	3.84373989109	180
8	8149	3.86193394492	180
8	8176	3.8722047733	180
8	8184	3.87373945975	180
8	8214	3.89209501636	180
8	8334	3.95125523885	180
8	8341	3.95323293682	180
8	8363	3.95960208833	180
8	8384	3.96735961251	180
8	8386	3.96741040732	180
8	8417	3.98260284346	180
8	8422	3.98349482979	180
8	8427	3.98415188468	180
8	8448	3.99312381488	180
8	8450	3.99316143225	180
8	8468	3.99979880987	180
8	8480	4.00144163053	180
8	8485	4.00381918039	180
8	8488	4.00418693389	180
8	8527	4.01862864548	180
8	8529	4.01985024646	180
8	8583	4.04324477887	180
8	8596	4.04670405134	180
8	8605	4.04990489946	180
8	8607	4.05156978922	180
8	8641	4.06880545849	180
8	8660	4.07585031217	180
8	8709	4.09999665136	180
8	8712	4.10086089027	180
8	8746	4.11458025902	180
8	8749	4.11733334282	180
8	8759	4.12047734432	180
8	8768	4.12431824501	180
8	8771	4.12461234369	180
8	8773	4.12543333469	180
8	8791	4.13283288852	180
8	8795	4.13392317899	180
8	8889	4.18	180
8	8896	4.18151700676	180
8	8902	4.18401475362	180
8	8923	4.19382783397	180
8	8937	4.2031937422	180
8	9027	4.25199505808	180
8	9034	4.25552970991	180
8	9085	4.28049825118	180
8	9089	4.28302028267	180
8	9097	4.28559452536	180
8	9119	4.29750732395	180
8	9132	4.30224743018	180
8	9140	4.30556687195	180
8	9182	4.32634372206	180
8	9197	4.33156725572	180
8	9203	4.33322173261	180
8	9219	4.33899088221	180
8	9228	4.34463368751	180
8	9257	4.35837314102	180
8	9284	4.36978166466	180
8	9297	4.37702731368	180
8	9305	4.38207076102	180
8	9308	4.3828828845	180
8	9328	4.39239354699	180
8	9336	4.3967767607	180
8	9350	4.4033043255	180
8	9377	4.41750631235	180
8	9403	4.42979570562	180
8	9430	4.44467425987	180
8	9441	4.44887658564	180
8	9447	4.45186811579	180
8	9450	4.45332450303	180
8	9478	4.46811311005	180
8	9498	4.47766301691	180
8	9534	4.49771924517	180
8	9566	4.50829996426	180
8	9597	4.52662535907	180
8	9610	4.53218033274	180
8	9641	4.54732791484	180
8	9669	4.56082022573	180
8	9679	4.5653428923	180
8	9696	4.57309204074	180
8	9704	4.57826347283	180
8	9718	4.58684677514	180
8	9729	4.59103051978	180
8	9744	4.59697298507	180
8	9792	4.6262227277	180
8	9818	4.64158377762	180
8	9848	4.65821332307	180
8	9864	4.66933523489	180
8	9874	4.67630570979	180
8	9882	4.68043017634	180
8	9901	4.69088398437	180
8	9930	4.70920814393	180
8	9949	4.71843090432	180
8	9960	4.72462635747	180
8	9965	4.72562754955	180
8	9987	4.73778167343	180
8	10002	4.74574596565	180
8	10024	4.75634282249	180
8	10031	4.76019576237	180
8	10074	4.7849528761	180
8	10091	4.79217487531	180
8	10116	4.80689719204	180
8	10152	4.83133782466	180
8	10201	4.86336733737	180
8	10211	4.87242219785	180
8	10213	4.87338258232	180
8	10220	4.87488009347	180
8	10242	4.8849229259	180
8	10268	4.90158348058	180
8	10272	4.9034945629	180
8	10275	4.90431976126	180
8	10284	4.90785035219	180
8	10291	4.91049558814	180
8	10294	4.91071832603	180
8	10301	4.9157406171	180
8	10308	4.92072587276	180
8	10310	4.92089130072	180
8	10366	4.95869602484	180
8	10415	4.99611667019	180
8	10430	5.00050197765	180
8	10476	5.03095731424	180
8	10486	5.04127073007	180
8	10496	5.05001233069	180
8	10519	5.06035337924	180
8	10541	5.07660265602	180
8	10576	5.09331957876	180
8	10580	5.09577026924	180
8	10596	5.10867736493	180
8	10625	5.12080862026	180
8	10642	5.13310680036	180
8	10664	5.1460370254	180
8	10667	5.14695003407	180
8	10688	5.15670944846	180
8	10699	5.16887229272	180
8	10717	5.17743908682	180
8	10723	5.18	180
8	10730	5.18319373325	180
8	10734	5.1859206282	180
8	10746	5.19679918031	180
8	10766	5.20847938825	180
8	10786	5.2176269766	180
8	10815	5.24141781635	180
8	10820	5.24353557928	180
8	10823	5.24558467927	180
8	10843	5.26093783684	180
8	10876	5.28181580665	180
8	10887	5.28955172736	180
8	10895	5.29536621409	180
8	10897	5.29628883223	180
8	10977	5.35271660554	180
8	10994	5.35971523766	180
8	11104	5.4233141987	180
8	11109	5.42804370765	180
8	11122	5.434006256	180
8	11142	5.44658232208	180
8	11154	5.45027407481	180
8	11180	5.46500337313	180
8	11244	5.49671625016	180
8	11257	5.50332145206	180
8	11286	5.51936462263	180
8	11288	5.51936583475	180
8	11292	5.52076528024	180
8	11301	5.52269183266	180
8	11321	5.53575045999	180
8	11335	5.54286159317	180
8	11366	5.55635602972	180
8	11443	5.5936777049	180
8	11479	5.61139706663	180
8	11509	5.62684236699	180
8	11515	5.62851541907	180
8	11530	5.63466017901	180
8	11539	5.63865417792	180
8	11546	5.64202136269	180
8	11548	5.64204103407	180
8	11593	5.66499305824	180
8	11601	5.66758013748	180
8	11606	5.67048179917	180
8	11659	5.69608005347	180
8	11661	5.69680961174	180
8	11683	5.70497924684	180
8	11696	5.71278034217	180
8	11723	5.7243523159	180
8	11738	5.73250124657	180
8	11747	5.73442939653	180
8	11749	5.73446506488	180
8	11790	5.75457437672	180
8	11806	5.76329727777	180
8	11882	5.8052955562	180
8	11905	5.81556714448	180
8	11936	5.83379024717	180
8	11946	5.83924091157	180
8	11959	5.84496733478	180
8	12009	5.86784899935	180
8	12024	5.87522919805	180
8	12038	5.87845923332	180
8	12041	5.88097716543	180
8	12045	5.88381205031	180
8	12055	5.88805213053	180
8	12086	5.90464231771	180
8	12093	5.90628833974	180
8	12129	5.92428004709	180
8	12136	5.92724616439	180
8	12150	5.93406049233	180
8	12187	5.94974638157	180
8	12189	5.9499096144	180
8	12196	5.95296379625	180
8	12202	5.95567594201	180
8	12218	5.96381206585	180
8	12238	5.97107394738	180
8	12241	5.97410957794	180
8	12250	5.97840936612	180
8	12258	5.9813086135	180
8	12308	6.00523799226	180
8	12343	6.02559078364	180
8	12352	6.02792031682	180
8	12363	6.03528345616	180
8	12378	6.04387206798	180
8	12421	6.06866422326	180
8	12461	6.08737976414	180
8	12467	6.08809240965	180
8	12485	6.10109546245	180
8	12503	6.10847986739	180
8	12520	6.11666069146	180
8	12543	6.13095703065	180
8	12553	6.1331524983	180
8	12574	6.14283492824	180
8	12578	6.14404144489	180
8	12584	6.14719726886	180
8	12608	6.16158481291	180
8	12621	6.16702224414	180
8	12637	6.17620169871	180
8	12643	6.18	180
8	12663	6.19140968882	180
8	12680	6.19852795803	180
8	12734	6.22701500452	180
8	12741	6.22898436497	180
8	12748	6.23253944839	180
8	12750	6.23266797521	180
8	12797	6.25883525874	180
8	12802	6.26145890114	180
8	12817	6.27057037295	180
8	12827	6.27616732587	180
8	12837	6.28251018027	180
8	12847	6.28639787838	180
8	12885	6.3108860903	180
8	12895	6.31576711854	180
8	12901	6.31945270839	180
8	12973	6.36222489808	180
8	12978	6.36681518388	180
8	12983	6.36845151832	180
8	12985	6.3698720474	180
8	12994	6.37359141271	180
8	13003	6.38034775769	180
8	13033	6.39702107062	180
8	13066	6.41367606019	180
8	13076	6.41918221365	180
8	13117	6.4436696715	180
8	13174	6.47605175852	180
8	13204	6.49284466736	180
8	13237	6.51078177303	180
8	13262	6.53061777597	180
8	13304	6.55320721756	180
8	13325	6.56659214108	180
8	13346	6.58227564256	180
8	13355	6.58476752607	180
8	13442	6.63844867324	180
8	13457	6.64787374954	180
8	13484	6.66016882084	180
8	13493	6.66272000922	180
8	13574	6.70238989182	180
8	13581	6.70326460161	180
8	13600	6.71369763997	180
8	13603	6.71513761507	180
8	13634	6.7243144233	180
8	13653	6.73364458891	180
8	13656	6.73564600778	180
8	13665	6.741889183	180
8	13679	6.7472278215	180
8	13747	6.78032877357	180
8	13765	6.78412349192	180
8	13773	6.78930246795	180
8	13798	6.80189992747	180
8	13807	6.80572819849	180
8	13809	6.80630135637	180
8	13821	6.81126199463	180
8	13840	6.81852383288	180
8	13845	6.81937588032	180
8	13861	6.82783480432	180
8	13919	6.85244796818	180
8	13926	6.85644970974	180
8	13953	6.87166285967	180
8	13958	6.87317856268	180
8	13972	6.88035981766	180
8	13978	6.88152929543	180
8	13996	6.89086080814	180
8	13999	6.89255748633	180
8	14007	6.89804622967	180
8	14027	6.90866399657	180
8	14097	6.93958983811	180
8	14122	6.95080362276	180
8	14135	6.96173302006	180
8	14158	6.96930343622	180
8	14203	6.99315853621	180
8	14213	6.99643485951	180
8	14242	7.00618534982	180
8	14265	7.01720276782	180
8	14293	7.0269076396	180
8	14300	7.02838595204	180
8	14326	7.04036228914	180
8	14342	7.04817241082	180
8	14355	7.05116003891	180
8	14401	7.07212210369	180
8	14404	7.0736152953	180
8	14457	7.09017573468	180
8	14467	7.09561188568	180
8	14476	7.09877748813	180
8	14484	7.10366111272	180
8	14505	7.11055774562	180
8	14512	7.11200468489	180
8	14520	7.11479631649	180
8	14522	7.11484204372	180
8	14535	7.11914144356	180
8	14540	7.12027901829	180
8	14553	7.12825347666	180
8	14648	7.16866727602	180
8	14655	7.16991560594	180
8	14667	7.1735065301	180
8	14681	7.18	180
8	14710	7.19513277876	180
8	14716	7.1962594037	180
8	14719	7.19792332766	180
8	14727	7.1995917783	180
8	14763	7.21764974026	180
8	14778	7.22594951714	180
8	14803	7.23494316321	180
8	14829	7.25446880062	180
8	14871	7.27360760284	180
8	14896	7.28493316055	180
8	14899	7.28732614313	180
8	14905	7.28910982945	180
8	14912	7.29154516032	180
8	14922	7.29796435288	180
8	14956	7.31425813364	180
8	14969	7.31945290603	180
8	15042	7.3600807868	180
8	15057	7.3648636804	180
8	15076	7.37134720261	180
8	15083	7.37466634062	180
8	15155	7.40834307644	180
8	15162	7.41189595897	180
8	15187	7.42286729785	180
8	15196	7.42483982601	180
8	15208	7.42829048367	180
8	15230	7.43832926899	180
8	15265	7.45288314459	180
8	15268	7.45336387086	180
8	15270	7.45426611251	180
8	15277	7.45594369291	180
8	15290	7.46064196574	180
8	15292	7.46185169817	180
8	15304	7.46664752865	180
8	15318	7.47413926145	180
8	15332	7.48055016395	180
8	15353	7.48930916086	180
8	15365	7.49329431476	180
8	15383	7.50310124733	180
8	15391	7.5059616955	180
8	15425	7.5197112685	180
8	15427	7.52021880251	180
8	15497	7.55329006481	180
8	15517	7.56317144644	180
8	15563	7.58371565234	180
8	15566	7.5866128253	180
8	15575	7.59108876222	180
8	15596	7.59914936926	180
8	15607	7.60534413438	180
8	15615	7.60946934722	180
8	15620	7.61327963882	180
8	15632	7.62079570754	180
8	15645	7.62469354918	180
8	15709	7.65852775325	180
8	15714	7.66074887424	180
8	15755	7.68271230168	180
8	15780	7.69347457325	180
8	15785	7.69502356053	180
8	15801	7.70221889605	180
8	15813	7.71109931423	180
8	15826	7.71758351933	180
8	15868	7.74107551481	180
8	15922	7.77420026203	180
8	15924	7.77492287053	180
8	15937	7.77946721153	180
8	15966	7.79911118086	180
8	15971	7.80351799733	180
8	15981	7.80644230068	180
8	15986	7.80922668155	180
8	16005	7.81804796614	180
8	16009	7.8200161891	180
8	16034	7.83531424474	180
8	16062	7.84929530053	180
8	16101	7.8743725631	180
8	16105	7.87544974445	180
8	16140	7.89699844452	180
8	16153	7.90597457384	180
8	16158	7.91129051056	180
8	16215	7.94781999075	180
8	16225	7.95360531477	180
8	16242	7.96399356041	180
8	16248	7.96547684846	180
8	16251	7.96737972837	180
8	16260	7.97222191129	180
8	16275	7.98055824706	180
8	16326	8.00179582214	180
8	16347	8.01440448459	180
8	16362	8.02000078805	180
8	16372	8.02425165013	180
8	16397	8.0360187058	180
8	16416	8.04680223088	180
8	16418	8.04820138314	180
8	16448	8.06367855286	180
8	16452	8.06555455645	180
8	16503	8.09029459872	180
8	16518	8.09929807717	180
8	16551	8.11519784824	180
8	16554	8.11617332076	180
8	16588	8.13199072646	180
8	16607	8.14118987947	180