version 2
run simpleNet-0-20181107-05:26:01-31308
attr configname simpleNet
attr datetime 20181107-05:26:01
attr experiment simpleNet
attr inifile omnetpp.ini
attr iterationvars ""
attr iterationvarsf ""
attr measurement ""
attr network simpleNet
attr processid 31308
attr repetition 0
attr replication #0
attr resultdir results
attr runnumber 0
attr seedset 0

vector 0 simpleNet.node[0] numInQueue:vector ETV
attr interpolationmode none
attr source numInQueue
attr title "total num in queue, vector"
vector 1 simpleNet.node[0] numProcessed:vector ETV
attr interpolationmode none
attr source numProcessed
attr title "num processed in statRate time, vector"
vector 2 simpleNet.node[1] numInQueue:vector ETV
attr interpolationmode none
attr source numInQueue
attr title "total num in queue, vector"
vector 3 simpleNet.node[1] numProcessed:vector ETV
attr interpolationmode none
attr source numProcessed
attr title "num processed in statRate time, vector"
vector 4 simpleNet.node[2] numInQueue:vector ETV
attr interpolationmode none
attr source numInQueue
attr title "total num in queue, vector"
vector 5 simpleNet.node[2] numProcessed:vector ETV
attr interpolationmode none
attr source numProcessed
attr title "num processed in statRate time, vector"
vector 6 simpleNet.node[3] numInQueue:vector ETV
attr interpolationmode none
attr source numInQueue
attr title "total num in queue, vector"
vector 7 simpleNet.node[3] numProcessed:vector ETV
attr interpolationmode none
attr source numProcessed
attr title "num processed in statRate time, vector"
vector 8 simpleNet.node[0] completionTime:vector ETV
attr interpolationmode none
attr source completionTime
attr title "completionTime, vector"
vector 9 simpleNet.node[3] completionTime:vector ETV
attr interpolationmode none
attr source completionTime
attr title "completionTime, vector"
0	2	0	0
0	584	0.5	0
0	1330	1	0
0	1891	1.5	0
0	2445	2	0
0	2999	2.5	0
0	3553	3	0
0	4107	3.5	0
0	4661	4	0
0	5215	4.5	0
0	5769	5	0
0	6323	5.5	0
0	6877	6	0
0	7431	6.5	0
0	7985	7	0
0	8539	7.5	0
0	9093	8	0
0	9647	8.5	0
0	10201	9	0
0	10755	9.5	0
0	11307	10	0
0	11485	10.5	0
1	2	0	0
1	584	0.5	50
1	1330	1	75
1	1891	1.5	52
1	2445	2	50
1	2999	2.5	50
1	3553	3	50
1	4107	3.5	50
1	4661	4	50
1	5215	4.5	50
1	5769	5	50
1	6323	5.5	50
1	6877	6	50
1	7431	6.5	50
1	7985	7	50
1	8539	7.5	50
1	9093	8	50
1	9647	8.5	50
1	10201	9	50
1	10755	9.5	50
1	11307	10	50
1	11485	10.5	23
2	3	0	0
2	585	0.5	0
2	1331	1	6
2	1892	1.5	31
2	2446	2	56
2	3000	2.5	81
2	3554	3	106
2	4108	3.5	131
2	4662	4	156
2	5216	4.5	181
2	5770	5	206
2	6324	5.5	231
2	6878	6	256
2	7432	6.5	281
2	7986	7	306
2	8540	7.5	331
2	9094	8	356
2	9648	8.5	381
2	10202	9	406
2	10756	9.5	431
2	11308	10	456
2	11486	10.5	450
3	3	0	0
3	585	0.5	99
3	1331	1	150
3	1892	1.5	103
3	2446	2	100
3	3000	2.5	100
3	3554	3	100
3	4108	3.5	100
3	4662	4	100
3	5216	4.5	100
3	5770	5	100
3	6324	5.5	100
3	6878	6	100
3	7432	6.5	100
3	7986	7	100
3	8540	7.5	100
3	9094	8	100
3	9648	8.5	100
3	10202	9	100
3	10756	9.5	100
3	11308	10	100
3	11486	10.5	48
4	4	0	0
4	586	0.5	0
4	1332	1	0
4	1893	1.5	0
4	2447	2	0
4	3001	2.5	0
4	3555	3	0
4	4109	3.5	0
4	4663	4	0
4	5217	4.5	0
4	5771	5	0
4	6325	5.5	0
4	6879	6	0
4	7433	6.5	0
4	7987	7	0
4	8541	7.5	0
4	9095	8	0
4	9649	8.5	0
4	10203	9	0
4	10757	9.5	0
4	11309	10	0
4	11487	10.5	0
5	4	0	0
5	586	0.5	103
5	1332	1	149
5	1893	1.5	102
5	2447	2	100
5	3001	2.5	100
5	3555	3	100
5	4109	3.5	100
5	4663	4	100
5	5217	4.5	100
5	5771	5	100
5	6325	5.5	100
5	6879	6	100
5	7433	6.5	100
5	7987	7	100
5	8541	7.5	100
5	9095	8	100
5	9649	8.5	100
5	10203	9	100
5	10757	9.5	100
5	11309	10	100
5	11487	10.5	46
6	6	0	0
6	587	0.5	0
6	1333	1	0
6	1894	1.5	0
6	2448	2	0
6	3002	2.5	0
6	3556	3	0
6	4110	3.5	0
6	4664	4	0
6	5218	4.5	0
6	5772	5	0
6	6326	5.5	0
6	6880	6	0
6	7434	6.5	0
6	7988	7	0
6	8542	7.5	0
6	9096	8	0
6	9650	8.5	0
6	10204	9	0
6	10758	9.5	0
6	11310	10	0
6	11488	10.5	0
7	6	0	0
7	587	0.5	51
7	1333	1	75
7	1894	1.5	50
7	2448	2	50
7	3002	2.5	50
7	3556	3	50
7	4110	3.5	50
7	4664	4	50
7	5218	4.5	50
7	5772	5	50
7	6326	5.5	50
7	6880	6	50
7	7434	6.5	50
7	7988	7	50
7	8542	7.5	50
7	9096	8	50
7	9650	8.5	50
7	10204	9	50
7	10758	9.5	50
7	11310	10	50
7	11488	10.5	24
8	117	0.18	0.18
8	132	0.19	0.18
8	144	0.2	0.18
8	159	0.21	0.18
8	173	0.22	0.18
8	189	0.23	0.18
8	203	0.24	0.18
8	219	0.25	0.18
8	233	0.26	0.18
8	249	0.27	0.18
8	263	0.28	0.18
8	279	0.29	0.18
8	293	0.3	0.18
8	309	0.31	0.18
8	323	0.32	0.18
8	339	0.33	0.18
8	353	0.34	0.18
8	369	0.35	0.18
8	383	0.36	0.18
8	399	0.37	0.18
8	413	0.38	0.18
8	429	0.39	0.18
8	443	0.4	0.18
8	459	0.41	0.18
8	473	0.42	0.18
8	489	0.43	0.18
8	503	0.44	0.18
8	519	0.45	0.18
8	533	0.46	0.18
8	549	0.47	0.18
8	563	0.48	0.18
8	579	0.49	0.18
8	597	0.5	0.18
8	613	0.51	0.18
8	627	0.52	0.18
8	643	0.53	0.18
8	657	0.54	0.18
8	673	0.55	0.18
8	687	0.56	0.18
8	703	0.57	0.18
8	717	0.58	0.18
8	733	0.59	0.18
8	747	0.6	0.18
8	763	0.61	0.18
8	777	0.62	0.18
8	793	0.63	0.18
8	807	0.64	0.18
8	823	0.65	0.18
8	837	0.66	0.18
8	853	0.67	0.18
8	867	0.68	0.18
8	883	0.69	0.18
8	897	0.7	0.18
8	913	0.71	0.18
8	927	0.72	0.18
8	943	0.73	0.18
8	957	0.74	0.18
8	973	0.75	0.18
8	987	0.76	0.18
8	1003	0.77	0.18
8	1017	0.78	0.18
8	1033	0.79	0.18
8	1047	0.8	0.18
8	1063	0.81	0.18
8	1077	0.82	0.18
8	1093	0.83	0.18
8	1107	0.84	0.18
8	1123	0.85	0.18
8	1137	0.86	0.18
8	1153	0.87	0.18
8	1167	0.88	0.18
8	1183	0.89	0.18
8	1197	0.9	0.18
8	1212	0.91	0.18
8	1226	0.92	0.18
8	1241	0.93	0.18
8	1254	0.94	0.18
8	1269	0.95	0.18
8	1282	0.96	0.18
8	1296	0.97	0.18
8	1309	0.98	0.18
8	1323	0.99	0.18
8	1338	1	0.18
8	1352	1.01	0.18
8	1363	1.02	0.18
8	1381	1.03	0.18
8	1404	1.05	0.19
8	1426	1.07	0.2
8	1448	1.09	0.21
8	1470	1.11	0.22
8	1492	1.13	0.23
8	1514	1.15	0.24
8	1536	1.17	0.25
8	1558	1.19	0.26
8	1580	1.21	0.27
8	1602	1.23	0.28
8	1624	1.25	0.29
8	1646	1.27	0.3
8	1668	1.29	0.31
8	1690	1.31	0.32
8	1712	1.33	0.33
8	1734	1.35	0.34
8	1756	1.37	0.35
8	1778	1.39	0.36
8	1800	1.41	0.37
8	1822	1.43	0.38
8	1844	1.45	0.39
8	1866	1.47	0.4
8	1888	1.49	0.41
8	1914	1.51	0.42
8	1936	1.53	0.43
8	1958	1.55	0.44
8	1980	1.57	0.45
8	2002	1.59	0.46
8	2024	1.61	0.47
8	2046	1.63	0.48
8	2068	1.65	0.49
8	2090	1.67	0.5
8	2112	1.69	0.51
8	2134	1.71	0.52
8	2156	1.73	0.53
8	2178	1.75	0.54
8	2200	1.77	0.55
8	2222	1.79	0.56
8	2244	1.81	0.57
8	2266	1.83	0.58
8	2288	1.85	0.59
8	2310	1.87	0.6
8	2332	1.89	0.61
8	2354	1.91	0.62
8	2376	1.93	0.63
8	2398	1.95	0.64
8	2420	1.97	0.65
8	2442	1.99	0.66
8	2468	2.01	0.67
8	2490	2.03	0.68
8	2512	2.05	0.69
8	2534	2.07	0.7
8	2556	2.09	0.71
8	2578	2.11	0.72
8	2600	2.13	0.73
8	2622	2.15	0.74
8	2644	2.17	0.75
8	2666	2.19	0.76
8	2688	2.21	0.77
8	2710	2.23	0.78
8	2732	2.25	0.79
8	2754	2.27	0.8
8	2776	2.29	0.81
8	2798	2.31	0.82
8	2820	2.33	0.83
8	2842	2.35	0.84
8	2864	2.37	0.85
8	2886	2.39	0.86
8	2908	2.41	0.87
8	2930	2.43	0.88
8	2952	2.45	0.89
8	2974	2.47	0.9
8	2996	2.49	0.91
8	3022	2.51	0.92
8	3044	2.53	0.93
8	3066	2.55	0.94
8	3088	2.57	0.95
8	3110	2.59	0.96
8	3132	2.61	0.97
8	3154	2.63	0.98
8	3176	2.65	0.99
8	3198	2.67	1
8	3220	2.69	1.01
8	3242	2.71	1.02
8	3264	2.73	1.03
8	3286	2.75	1.04
8	3308	2.77	1.05
8	3330	2.79	1.06
8	3352	2.81	1.07
8	3374	2.83	1.08
8	3396	2.85	1.09
8	3418	2.87	1.1
8	3440	2.89	1.11
8	3462	2.91	1.12
8	3484	2.93	1.13
8	3506	2.95	1.14
8	3528	2.97	1.15
8	3550	2.99	1.16
8	3576	3.01	1.17
8	3598	3.03	1.18
8	3620	3.05	1.19
8	3642	3.07	1.2
8	3664	3.09	1.21
8	3686	3.11	1.22
8	3708	3.13	1.23
8	3730	3.15	1.24
8	3752	3.17	1.25
8	3774	3.19	1.26
8	3796	3.21	1.27
8	3818	3.23	1.28
8	3840	3.25	1.29
8	3862	3.27	1.3
8	3884	3.29	1.31
8	3906	3.31	1.32
8	3928	3.33	1.33
8	3950	3.35	1.34
8	3972	3.37	1.35
8	3994	3.39	1.36
8	4016	3.41	1.37
8	4038	3.43	1.38
8	4060	3.45	1.39
8	4082	3.47	1.4
8	4104	3.49	1.41
8	4130	3.51	1.42
8	4152	3.53	1.43
8	4174	3.55	1.44
8	4196	3.57	1.45
8	4218	3.59	1.46
8	4240	3.61	1.47
8	4262	3.63	1.48
8	4284	3.65	1.49
8	4306	3.67	1.5
8	4328	3.69	1.51
8	4350	3.71	1.52
8	4372	3.73	1.53
8	4394	3.75	1.54
8	4416	3.77	1.55
8	4438	3.79	1.56
8	4460	3.81	1.57
8	4482	3.83	1.58
8	4504	3.85	1.59
8	4526	3.87	1.6
8	4548	3.89	1.61
8	4570	3.91	1.62
8	4592	3.93	1.63
8	4614	3.95	1.64
8	4636	3.97	1.65
8	4658	3.99	1.66
8	4684	4.01	1.67
8	4706	4.03	1.68
8	4728	4.05	1.69
8	4750	4.07	1.7
8	4772	4.09	1.71
8	4794	4.11	1.72
8	4816	4.13	1.73
8	4838	4.15	1.74
8	4860	4.17	1.75
8	4882	4.19	1.76
8	4904	4.21	1.77
8	4926	4.23	1.78
8	4948	4.25	1.79
8	4970	4.27	1.8
8	4992	4.29	1.81
8	5014	4.31	1.82
8	5036	4.33	1.83
8	5058	4.35	1.84
8	5080	4.37	1.85
8	5102	4.39	1.86
8	5124	4.41	1.87
8	5146	4.43	1.88
8	5168	4.45	1.89
8	5190	4.47	1.9
8	5212	4.49	1.91
8	5238	4.51	1.92
8	5260	4.53	1.93
8	5282	4.55	1.94
8	5304	4.57	1.95
8	5326	4.59	1.96
8	5348	4.61	1.97
8	5370	4.63	1.98
8	5392	4.65	1.99
8	5414	4.67	2
8	5436	4.69	2.01
8	5458	4.71	2.02
8	5480	4.73	2.03
8	5502	4.75	2.04
8	5524	4.77	2.05
8	5546	4.79	2.06
8	5568	4.81	2.07
8	5590	4.83	2.08
8	5612	4.85	2.09
8	5634	4.87	2.1
8	5656	4.89	2.11
8	5678	4.91	2.12
8	5700	4.93	2.13
8	5722	4.95	2.14
8	5744	4.97	2.15
8	5766	4.99	2.16
8	5792	5.01	2.17
8	5814	5.03	2.18
8	5836	5.05	2.19
8	5858	5.07	2.2
8	5880	5.09	2.21
8	5902	5.11	2.22
8	5924	5.13	2.23
8	5946	5.15	2.24
8	5968	5.17	2.25
8	5990	5.19	2.26
8	6012	5.21	2.27
8	6034	5.23	2.28
8	6056	5.25	2.29
8	6078	5.27	2.3
8	6100	5.29	2.31
8	6122	5.31	2.32
8	6144	5.33	2.33
8	6166	5.35	2.34
8	6188	5.37	2.35
8	6210	5.39	2.36
8	6232	5.41	2.37
8	6254	5.43	2.38
8	6276	5.45	2.39
8	6298	5.47	2.4
8	6320	5.49	2.41
8	6346	5.51	2.42
8	6368	5.53	2.43
8	6390	5.55	2.44
8	6412	5.57	2.45
8	6434	5.59	2.46
8	6456	5.61	2.47
8	6478	5.63	2.48
8	6500	5.65	2.49
8	6522	5.67	2.5
8	6544	5.69	2.51
8	6566	5.71	2.52
8	6588	5.73	2.53
8	6610	5.75	2.54
8	6632	5.77	2.55
8	6654	5.79	2.56
8	6676	5.81	2.57
8	6698	5.83	2.58
8	6720	5.85	2.59
8	6742	5.87	2.6
8	6764	5.89	2.61
8	6786	5.91	2.62
8	6808	5.93	2.63
8	6830	5.95	2.64
8	6852	5.97	2.65
8	6874	5.99	2.66
8	6900	6.01	2.67
8	6922	6.03	2.68
8	6944	6.05	2.69
8	6966	6.07	2.7
8	6988	6.09	2.71
8	7010	6.11	2.72
8	7032	6.13	2.73
8	7054	6.15	2.74
8	7076	6.17	2.75
8	7098	6.19	2.76
8	7120	6.21	2.77
8	7142	6.23	2.78
8	7164	6.25	2.79
8	7186	6.27	2.8
8	7208	6.29	2.81
8	7230	6.31	2.82
8	7252	6.33	2.83
8	7274	6.35	2.84
8	7296	6.37	2.85
8	7318	6.39	2.86
8	7340	6.41	2.87
8	7362	6.43	2.88
8	7384	6.45	2.89
8	7406	6.47	2.9
8	7428	6.49	2.91
8	7454	6.51	2.92
8	7476	6.53	2.93
8	7498	6.55	2.94
8	7520	6.57	2.95
8	7542	6.59	2.96
8	7564	6.61	2.97
8	7586	6.63	2.98
8	7608	6.65	2.99
8	7630	6.67	3
8	7652	6.69	3.01
8	7674	6.71	3.02
8	7696	6.73	3.03
8	7718	6.75	3.04
8	7740	6.77	3.05
8	7762	6.79	3.06
8	7784	6.81	3.07
8	7806	6.83	3.08
8	7828	6.85	3.09
8	7850	6.87	3.1
8	7872	6.89	3.11
8	7894	6.91	3.12
8	7916	6.93	3.13
8	7938	6.95	3.14
8	7960	6.97	3.15
8	7982	6.99	3.16
8	8008	7.01	3.17
8	8030	7.03	3.18
8	8052	7.05	3.19
8	8074	7.07	3.2
8	8096	7.09	3.21
8	8118	7.11	3.22
8	8140	7.13	3.23
8	8162	7.15	3.24
8	8184	7.17	3.25
8	8206	7.19	3.26
8	8228	7.21	3.27
8	8250	7.23	3.28
8	8272	7.25	3.29
8	8294	7.27	3.3
8	8316	7.29	3.31
8	8338	7.31	3.32
8	8360	7.33	3.33
8	8382	7.35	3.34
8	8404	7.37	3.35
8	8426	7.39	3.36
8	8448	7.41	3.37
8	8470	7.43	3.38
8	8492	7.45	3.39
8	8514	7.47	3.4
8	8536	7.49	3.41
8	8562	7.51	3.42
8	8584	7.53	3.43
8	8606	7.55	3.44
8	8628	7.57	3.45
8	8650	7.59	3.46
8	8672	7.61	3.47
8	8694	7.63	3.48
8	8716	7.65	3.49
8	8738	7.67	3.5
8	8760	7.69	3.51
8	8782	7.71	3.52
8	8804	7.73	3.53
8	8826	7.75	3.54
8	8848	7.77	3.55
8	8870	7.79	3.56
8	8892	7.81	3.57
8	8914	7.83	3.58
8	8936	7.85	3.59
8	8958	7.87	3.6
8	8980	7.89	3.61
8	9002	7.91	3.62
8	9024	7.93	3.63
8	9046	7.95	3.64
8	9068	7.97	3.65
8	9090	7.99	3.66
8	9116	8.01	3.67
8	9138	8.03	3.68
8	9160	8.05	3.69
8	9182	8.07	3.7
8	9204	8.09	3.71
8	9226	8.11	3.72
8	9248	8.13	3.73
8	9270	8.15	3.74
8	9292	8.17	3.75
8	9314	8.19	3.76
8	9336	8.21	3.77
8	9358	8.23	3.78
8	9380	8.25	3.79
8	9402	8.27	3.8
8	9424	8.29	3.81
8	9446	8.31	3.82
8	9468	8.33	3.83
8	9490	8.35	3.84
8	9512	8.37	3.85
8	9534	8.39	3.86
8	9556	8.41	3.87
8	9578	8.43	3.88
8	9600	8.45	3.89
8	9622	8.47	3.9
8	9644	8.49	3.91
8	9670	8.51	3.92
8	9692	8.53	3.93
8	9714	8.55	3.94
8	9736	8.57	3.95
8	9758	8.59	3.96
8	9780	8.61	3.97
8	9802	8.63	3.98
8	9824	8.65	3.99
8	9846	8.67	4
8	9868	8.69	4.01
8	9890	8.71	4.02
8	9912	8.73	4.03
8	9934	8.75	4.04
8	9956	8.77	4.05
8	9978	8.79	4.06
8	10000	8.81	4.07
8	10022	8.83	4.08
8	10044	8.85	4.09
8	10066	8.87	4.1
8	10088	8.89	4.11
8	10110	8.91	4.12
8	10132	8.93	4.13
8	10154	8.95	4.14
8	10176	8.97	4.15
8	10198	8.99	4.16
8	10224	9.01	4.17
8	10246	9.03	4.18
8	10268	9.05	4.19
8	10290	9.07	4.2
8	10312	9.09	4.21
8	10334	9.11	4.22
8	10356	9.13	4.23
8	10378	9.15	4.24
8	10400	9.17	4.25
8	10422	9.19	4.26
8	10444	9.21	4.27
8	10466	9.23	4.28
8	10488	9.25	4.29
8	10510	9.27	4.3
8	10532	9.29	4.31
8	10554	9.31	4.32
8	10576	9.33	4.33
8	10598	9.35	4.34
8	10620	9.37	4.35
8	10642	9.39	4.36
8	10664	9.41	4.37
8	10686	9.43	4.38
8	10708	9.45	4.39
8	10730	9.47	4.4
8	10752	9.49	4.41
8	10778	9.51	4.42
8	10800	9.53	4.43
8	10822	9.55	4.44
8	10844	9.57	4.45
8	10866	9.59	4.46
8	10888	9.61	4.47
8	10910	9.63	4.48
8	10932	9.65	4.49
8	10954	9.67	4.5
8	10976	9.69	4.51
8	10998	9.71	4.52
8	11020	9.73	4.53
8	11042	9.75	4.54
8	11064	9.77	4.55
8	11086	9.79	4.56
8	11108	9.81	4.57
8	11130	9.83	4.58
8	11152	9.85	4.59
8	11174	9.87	4.6
8	11196	9.89	4.61
8	11218	9.91	4.62
8	11240	9.93	4.63
8	11262	9.95	4.64
8	11284	9.97	4.65
8	11306	9.99	4.66
8	11329	10.01	4.67
8	11346	10.03	4.68
8	11362	10.05	4.69
8	11377	10.07	4.7
8	11391	10.09	4.71
8	11405	10.11	4.72
8	11418	10.13	4.73
8	11429	10.15	4.74
8	11440	10.17	4.75
8	11449	10.19	4.76
8	11456	10.21	4.77
8	11463	10.23	4.78
8	11469	10.25	4.79
8	11474	10.27	4.8
8	11479	10.29	4.81
8	11482	10.31	4.82
9	119	0.18	0.18
9	146	0.2	0.18
9	175	0.22	0.18
9	205	0.24	0.18
9	235	0.26	0.18
9	265	0.28	0.18
9	295	0.3	0.18
9	325	0.32	0.18
9	355	0.34	0.18
9	385	0.36	0.18
9	415	0.38	0.18
9	445	0.4	0.18
9	475	0.42	0.18
9	505	0.44	0.18
9	535	0.46	0.18
9	565	0.48	0.18
9	599	0.5	0.18
9	629	0.52	0.18
9	659	0.54	0.18
9	689	0.56	0.18
9	719	0.58	0.18
9	749	0.6	0.18
9	779	0.62	0.18
9	809	0.64	0.18
9	839	0.66	0.18
9	869	0.68	0.18
9	899	0.7	0.18
9	929	0.72	0.18
9	959	0.74	0.18
9	989	0.76	0.18
9	1019	0.78	0.18
9	1049	0.8	0.18
9	1079	0.82	0.18
9	1109	0.84	0.18
9	1139	0.86	0.18
9	1169	0.88	0.18
9	1199	0.9	0.18
9	1228	0.92	0.18
9	1256	0.94	0.18
9	1284	0.96	0.18
9	1311	0.98	0.18
9	1340	1	0.18
9	1365	1.02	0.18
9	1388	1.04	0.18
9	1411	1.06	0.18
9	1433	1.08	0.18
9	1455	1.1	0.18
9	1477	1.12	0.18
9	1499	1.14	0.18
9	1521	1.16	0.18
9	1543	1.18	0.18
9	1565	1.2	0.18
9	1587	1.22	0.18
9	1609	1.24	0.18
9	1631	1.26	0.18
9	1653	1.28	0.18
9	1675	1.3	0.18
9	1697	1.32	0.18
9	1719	1.34	0.18
9	1741	1.36	0.18
9	1763	1.38	0.18
9	1785	1.4	0.18
9	1807	1.42	0.18
9	1829	1.44	0.18
9	1851	1.46	0.18
9	1873	1.48	0.18
9	1899	1.5	0.18
9	1921	1.52	0.18
9	1943	1.54	0.18
9	1965	1.56	0.18
9	1987	1.58	0.18
9	2009	1.6	0.18
9	2031	1.62	0.18
9	2053	1.64	0.18
9	2075	1.66	0.18
9	2097	1.68	0.18
9	2119	1.7	0.18
9	2141	1.72	0.18
9	2163	1.74	0.18
9	2185	1.76	0.18
9	2207	1.78	0.18
9	2229	1.8	0.18
9	2251	1.82	0.18
9	2273	1.84	0.18
9	2295	1.86	0.18
9	2317	1.88	0.18
9	2339	1.9	0.18
9	2361	1.92	0.18
9	2383	1.94	0.18
9	2405	1.96	0.18
9	2427	1.98	0.18
9	2453	2	0.18
9	2475	2.02	0.18
9	2497	2.04	0.18
9	2519	2.06	0.18
9	2541	2.08	0.18
9	2563	2.1	0.18
9	2585	2.12	0.18
9	2607	2.14	0.18
9	2629	2.16	0.18
9	2651	2.18	0.18
9	2673	2.2	0.18
9	2695	2.22	0.18
9	2717	2.24	0.18
9	2739	2.26	0.18
9	2761	2.28	0.18
9	2783	2.3	0.18
9	2805	2.32	0.18
9	2827	2.34	0.18
9	2849	2.36	0.18
9	2871	2.38	0.18
9	2893	2.4	0.18
9	2915	2.42	0.18
9	2937	2.44	0.18
9	2959	2.46	0.18
9	2981	2.48	0.18
9	3007	2.5	0.18
9	3029	2.52	0.18
9	3051	2.54	0.18
9	3073	2.56	0.18
9	3095	2.58	0.18
9	3117	2.6	0.18
9	3139	2.62	0.18
9	3161	2.64	0.18
9	3183	2.66	0.18
9	3205	2.68	0.18
9	3227	2.7	0.18
9	3249	2.72	0.18
9	3271	2.74	0.18
9	3293	2.76	0.18
9	3315	2.78	0.18
9	3337	2.8	0.18
9	3359	2.82	0.18
9	3381	2.84	0.18
9	3403	2.86	0.18
9	3425	2.88	0.18
9	3447	2.9	0.18
9	3469	2.92	0.18
9	3491	2.94	0.18
9	3513	2.96	0.18
9	3535	2.98	0.18
9	3561	3	0.18
9	3583	3.02	0.18
9	3605	3.04	0.18
9	3627	3.06	0.18
9	3649	3.08	0.18
9	3671	3.1	0.18
9	3693	3.12	0.18
9	3715	3.14	0.18
9	3737	3.16	0.18
9	3759	3.18	0.18
9	3781	3.2	0.18
9	3803	3.22	0.18
9	3825	3.24	0.18
9	3847	3.26	0.18
9	3869	3.28	0.18
9	3891	3.3	0.18
9	3913	3.32	0.18
9	3935	3.34	0.18
9	3957	3.36	0.18
9	3979	3.38	0.18
9	4001	3.4	0.18
9	4023	3.42	0.18
9	4045	3.44	0.18
9	4067	3.46	0.18
9	4089	3.48	0.18
9	4115	3.5	0.18
9	4137	3.52	0.18
9	4159	3.54	0.18
9	4181	3.56	0.18
9	4203	3.58	0.18
9	4225	3.6	0.18
9	4247	3.62	0.18
9	4269	3.64	0.18
9	4291	3.66	0.18
9	4313	3.68	0.18
9	4335	3.7	0.18
9	4357	3.72	0.18
9	4379	3.74	0.18
9	4401	3.76	0.18
9	4423	3.78	0.18
9	4445	3.8	0.18
9	4467	3.82	0.18
9	4489	3.84	0.18
9	4511	3.86	0.18
9	4533	3.88	0.18
9	4555	3.9	0.18
9	4577	3.92	0.18
9	4599	3.94	0.18
9	4621	3.96	0.18
9	4643	3.98	0.18
9	4669	4	0.18
9	4691	4.02	0.18
9	4713	4.04	0.18
9	4735	4.06	0.18
9	4757	4.08	0.18
9	4779	4.1	0.18
9	4801	4.12	0.18
9	4823	4.14	0.18
9	4845	4.16	0.18
9	4867	4.18	0.18
9	4889	4.2	0.18
9	4911	4.22	0.18
9	4933	4.24	0.18
9	4955	4.26	0.18
9	4977	4.28	0.18
9	4999	4.3	0.18
9	5021	4.32	0.18
9	5043	4.34	0.18
9	5065	4.36	0.18
9	5087	4.38	0.18
9	5109	4.4	0.18
9	5131	4.42	0.18
9	5153	4.44	0.18
9	5175	4.46	0.18
9	5197	4.48	0.18
9	5223	4.5	0.18
9	5245	4.52	0.18
9	5267	4.54	0.18
9	5289	4.56	0.18
9	5311	4.58	0.18
9	5333	4.6	0.18
9	5355	4.62	0.18
9	5377	4.64	0.18
9	5399	4.66	0.18
9	5421	4.68	0.18
9	5443	4.7	0.18
9	5465	4.72	0.18
9	5487	4.74	0.18
9	5509	4.76	0.18
9	5531	4.78	0.18
9	5553	4.8	0.18
9	5575	4.82	0.18
9	5597	4.84	0.18
9	5619	4.86	0.18
9	5641	4.88	0.18
9	5663	4.9	0.18
9	5685	4.92	0.18
9	5707	4.94	0.18
9	5729	4.96	0.18
9	5751	4.98	0.18
9	5777	5	0.18
9	5799	5.02	0.18
9	5821	5.04	0.18
9	5843	5.06	0.18
9	5865	5.08	0.18
9	5887	5.1	0.18
9	5909	5.12	0.18
9	5931	5.14	0.18
9	5953	5.16	0.18
9	5975	5.18	0.18
9	5997	5.2	0.18
9	6019	5.22	0.18
9	6041	5.24	0.18
9	6063	5.26	0.18
9	6085	5.28	0.18
9	6107	5.3	0.18
9	6129	5.32	0.18
9	6151	5.34	0.18
9	6173	5.36	0.18
9	6195	5.38	0.18
9	6217	5.4	0.18
9	6239	5.42	0.18
9	6261	5.44	0.18
9	6283	5.46	0.18
9	6305	5.48	0.18
9	6331	5.5	0.18
9	6353	5.52	0.18
9	6375	5.54	0.18
9	6397	5.56	0.18
9	6419	5.58	0.18
9	6441	5.6	0.18
9	6463	5.62	0.18
9	6485	5.64	0.18
9	6507	5.66	0.18
9	6529	5.68	0.18
9	6551	5.7	0.18
9	6573	5.72	0.18
9	6595	5.74	0.18
9	6617	5.76	0.18
9	6639	5.78	0.18
9	6661	5.8	0.18
9	6683	5.82	0.18
9	6705	5.84	0.18
9	6727	5.86	0.18
9	6749	5.88	0.18
9	6771	5.9	0.18
9	6793	5.92	0.18
9	6815	5.94	0.18
9	6837	5.96	0.18
9	6859	5.98	0.18
9	6885	6	0.18
9	6907	6.02	0.18
9	6929	6.04	0.18
9	6951	6.06	0.18
9	6973	6.08	0.18
9	6995	6.1	0.18
9	7017	6.12	0.18
9	7039	6.14	0.18
9	7061	6.16	0.18
9	7083	6.18	0.18
9	7105	6.2	0.18
9	7127	6.22	0.18
9	7149	6.24	0.18
9	7171	6.26	0.18
9	7193	6.28	0.18
9	7215	6.3	0.18
9	7237	6.32	0.18
9	7259	6.34	0.18
9	7281	6.36	0.18
9	7303	6.38	0.18
9	7325	6.4	0.18
9	7347	6.42	0.18
9	7369	6.44	0.18
9	7391	6.46	0.18
9	7413	6.48	0.18
9	7439	6.5	0.18
9	7461	6.52	0.18
9	7483	6.54	0.18
9	7505	6.56	0.18
9	7527	6.58	0.18
9	7549	6.6	0.18
9	7571	6.62	0.18
9	7593	6.64	0.18
9	7615	6.66	0.18
9	7637	6.68	0.18
9	7659	6.7	0.18
9	7681	6.72	0.18
9	7703	6.74	0.18
9	7725	6.76	0.18
9	7747	6.78	0.18
9	7769	6.8	0.18
9	7791	6.82	0.18
9	7813	6.84	0.18
9	7835	6.86	0.18
9	7857	6.88	0.18
9	7879	6.9	0.18
9	7901	6.92	0.18
9	7923	6.94	0.18
9	7945	6.96	0.18
9	7967	6.98	0.18
9	7993	7	0.18
9	8015	7.02	0.18
9	8037	7.04	0.18
9	8059	7.06	0.18
9	8081	7.08	0.18
9	8103	7.1	0.18
9	8125	7.12	0.18
9	8147	7.14	0.18
9	8169	7.16	0.18
9	8191	7.18	0.18
9	8213	7.2	0.18
9	8235	7.22	0.18
9	8257	7.24	0.18
9	8279	7.26	0.18
9	8301	7.28	0.18
9	8323	7.3	0.18
9	8345	7.32	0.18
9	8367	7.34	0.18
9	8389	7.36	0.18
9	8411	7.38	0.18
9	8433	7.4	0.18
9	8455	7.42	0.18
9	8477	7.44	0.18
9	8499	7.46	0.18
9	8521	7.48	0.18
9	8547	7.5	0.18
9	8569	7.52	0.18
9	8591	7.54	0.18
9	8613	7.56	0.18
9	8635	7.58	0.18
9	8657	7.6	0.18
9	8679	7.62	0.18
9	8701	7.64	0.18
9	8723	7.66	0.18
9	8745	7.68	0.18
9	8767	7.7	0.18
9	8789	7.72	0.18
9	8811	7.74	0.18
9	8833	7.76	0.18
9	8855	7.78	0.18
9	8877	7.8	0.18
9	8899	7.82	0.18
9	8921	7.84	0.18
9	8943	7.86	0.18
9	8965	7.88	0.18
9	8987	7.9	0.18
9	9009	7.92	0.18
9	9031	7.94	0.18
9	9053	7.96	0.18
9	9075	7.98	0.18
9	9101	8	0.18
9	9123	8.02	0.18
9	9145	8.04	0.18
9	9167	8.06	0.18
9	9189	8.08	0.18
9	9211	8.1	0.18
9	9233	8.12	0.18
9	9255	8.14	0.18
9	9277	8.16	0.18
9	9299	8.18	0.18
9	9321	8.2	0.18
9	9343	8.22	0.18
9	9365	8.24	0.18
9	9387	8.26	0.18
9	9409	8.28	0.18
9	9431	8.3	0.18
9	9453	8.32	0.18
9	9475	8.34	0.18
9	9497	8.36	0.18
9	9519	8.38	0.18
9	9541	8.4	0.18
9	9563	8.42	0.18
9	9585	8.44	0.18
9	9607	8.46	0.18
9	9629	8.48	0.18
9	9655	8.5	0.18
9	9677	8.52	0.18
9	9699	8.54	0.18
9	9721	8.56	0.18
9	9743	8.58	0.18
9	9765	8.6	0.18
9	9787	8.62	0.18
9	9809	8.64	0.18
9	9831	8.66	0.18
9	9853	8.68	0.18
9	9875	8.7	0.18
9	9897	8.72	0.18
9	9919	8.74	0.18
9	9941	8.76	0.18
9	9963	8.78	0.18
9	9985	8.8	0.18
9	10007	8.82	0.18
9	10029	8.84	0.18
9	10051	8.86	0.18
9	10073	8.88	0.18
9	10095	8.9	0.18
9	10117	8.92	0.18
9	10139	8.94	0.18
9	10161	8.96	0.18
9	10183	8.98	0.18
9	10209	9	0.18
9	10231	9.02	0.18
9	10253	9.04	0.18
9	10275	9.06	0.18
9	10297	9.08	0.18
9	10319	9.1	0.18
9	10341	9.12	0.18
9	10363	9.14	0.18
9	10385	9.16	0.18
9	10407	9.18	0.18
9	10429	9.2	0.18
9	10451	9.22	0.18
9	10473	9.24	0.18
9	10495	9.26	0.18
9	10517	9.28	0.18
9	10539	9.3	0.18
9	10561	9.32	0.18
9	10583	9.34	0.18
9	10605	9.36	0.18
9	10627	9.38	0.18
9	10649	9.4	0.18
9	10671	9.42	0.18
9	10693	9.44	0.18
9	10715	9.46	0.18
9	10737	9.48	0.18
9	10763	9.5	0.18
9	10785	9.52	0.18
9	10807	9.54	0.18
9	10829	9.56	0.18
9	10851	9.58	0.18
9	10873	9.6	0.18
9	10895	9.62	0.18
9	10917	9.64	0.18
9	10939	9.66	0.18
9	10961	9.68	0.18
9	10983	9.7	0.18
9	11005	9.72	0.18
9	11027	9.74	0.18
9	11049	9.76	0.18
9	11071	9.78	0.18
9	11093	9.8	0.18
9	11115	9.82	0.18
9	11137	9.84	0.18
9	11159	9.86	0.18
9	11181	9.88	0.18
9	11203	9.9	0.18
9	11225	9.92	0.18
9	11247	9.94	0.18
9	11269	9.96	0.18
9	11291	9.98	0.18
9	11315	10	0.18
9	11334	10.02	0.18
9	11350	10.04	0.18
9	11365	10.06	0.18
9	11380	10.08	0.18
9	11394	10.1	0.18
9	11407	10.12	0.18
9	11420	10.14	0.18
9	11431	10.16	0.18

