version 2
run simpleNet-0-20181114-03:40:49-81226
attr configname simpleNet
attr datetime 20181114-03:40:49
attr experiment simpleNet
attr inifile omnetpp.ini
attr iterationvars ""
attr iterationvarsf ""
attr measurement ""
attr network simpleNet
attr processid 81226
attr repetition 0
attr replication #0
attr resultdir results
attr runnumber 0
attr seedset 0

vector 0 simpleNet.node[0] numInQueue:vector ETV
attr interpolationmode none
attr source numInQueue
attr title "total num in queue, vector"
vector 1 simpleNet.node[0] numProcessed:vector ETV
attr interpolationmode none
attr source numProcessed
attr title "num processing events in statRate, vector"
vector 2 simpleNet.node[1] numInQueue:vector ETV
attr interpolationmode none
attr source numInQueue
attr title "total num in queue, vector"
vector 3 simpleNet.node[1] numProcessed:vector ETV
attr interpolationmode none
attr source numProcessed
attr title "num processing events in statRate, vector"
vector 4 simpleNet.node[2] numInQueue:vector ETV
attr interpolationmode none
attr source numInQueue
attr title "total num in queue, vector"
vector 5 simpleNet.node[2] numProcessed:vector ETV
attr interpolationmode none
attr source numProcessed
attr title "num processing events in statRate, vector"
vector 6 simpleNet.node[3] numInQueue:vector ETV
attr interpolationmode none
attr source numInQueue
attr title "total num in queue, vector"
vector 7 simpleNet.node[3] numProcessed:vector ETV
attr interpolationmode none
attr source numProcessed
attr title "num processing events in statRate, vector"
vector 8 simpleNet.node[0] completionTime:vector ETV
attr interpolationmode none
attr source completionTime
attr title "completionTime, vector"
vector 9 simpleNet.node[3] completionTime:vector ETV
attr interpolationmode none
attr source completionTime
attr title "completionTime, vector"
0	2	0	0
0	2888	0.5	0
0	6393	1	0
0	9830	1.5	0
0	13304	2	0
0	16792	2.5	0
0	20278	3	0
1	2	0	0
1	2888	0.5	232
1	6393	1	347
1	9830	1.5	321
1	13304	2	332
1	16792	2.5	347
1	20278	3	321
2	3	0	0
2	2889	0.5	65
2	6394	1	93
2	9831	1.5	136
2	13305	2	183
2	16793	2.5	195
2	20279	3	239
3	3	0	0
3	2889	0.5	475
3	6394	1	676
3	9831	1.5	668
3	13305	2	656
3	16793	2.5	676
3	20279	3	668
4	4	0	0
4	2890	0.5	38
4	6395	1	64
4	9832	1.5	73
4	13306	2	123
4	16794	2.5	151
4	20280	3	187
5	4	0	0
5	2890	0.5	476
5	6395	1	676
5	9832	1.5	654
5	13306	2	670
5	16794	2.5	676
5	20280	3	654
6	6	0	0
6	2891	0.5	0
6	6396	1	0
6	9833	1.5	0
6	13307	2	0
6	16795	2.5	0
6	20281	3	0
7	6	0	0
7	2891	0.5	235
7	6396	1	351
7	9833	1.5	314
7	13307	2	335
7	16795	2.5	351
7	20281	3	314
8	667	0.18	180
8	677	0.18079664667	180
8	704	0.185783704555	180
8	710	0.186755792454	180
8	719	0.18738761799	180
8	727	0.189220106172	180
8	749	0.19214748077	180
8	756	0.192443886341	180
8	759	0.192733537149	180
8	771	0.195354634405	180
8	789	0.197463184429	180
8	791	0.197590714841	180
8	802	0.198923878409	180
8	810	0.200606310458	180
8	819	0.202000314503	180
8	831	0.202943607802	180
8	866	0.20766876419	180
8	869	0.20794903666	180
8	876	0.209400934512	180
8	897	0.212330144355	180
8	899	0.212714804505	180
8	912	0.215277770791	180
8	934	0.217209828588	180
8	965	0.220784706987	180
8	1016	0.226837429674	180
8	1023	0.227374790972	180
8	1034	0.228557245962	180
8	1043	0.229655292352	180
8	1051	0.230718831046	180
8	1076	0.233241968233	180
8	1101	0.237197526094	180
8	1112	0.238385615982	180
8	1114	0.238435481618	180
8	1127	0.240332041584	180
8	1145	0.244300570899	180
8	1159	0.245934712957	180
8	1167	0.247144018053	180
8	1187	0.249537646101	180
8	1209	0.252043239366	180
8	1212	0.252189015614	180
8	1220	0.25273157192	180
8	1230	0.254720383291	180
8	1236	0.255538542832	180
8	1252	0.258102332699	180
8	1267	0.26041060427	180
8	1273	0.260748863466	180
8	1285	0.262474041209	180
8	1287	0.262501952602	180
8	1310	0.265166560867	180
8	1312	0.265330748783	180
8	1719	0.33	242.589453643
8	1727	0.331333985142	243.863197731
8	1738	0.333766600744	245.661204309
8	1749	0.335550346095	247.197079906
8	1775	0.339459336677	250.805219123
8	1824	0.346570643399	257.319507601
8	1836	0.347602273926	257.304606913
8	1876	0.35283190662	260.663306363
8	1892	0.354634919743	261.507861718
8	1896	0.355094097807	261.571174343
8	1908	0.357318993099	262.681104374
8	1956	0.363991941278	267.584150277
8	1960	0.364403145285	267.38742679
8	1981	0.367300857868	270.089696698
8	1987	0.367396638467	269.196114195
8	2007	0.370735234061	271.331975973
8	2028	0.372326049102	270.724534615
8	2030	0.372391633517	268.956744308
8	2042	0.373348153196	268.635021502
8	2109	0.382093239373	274.867499656
8	2111	0.38219268744	269.054722839
8	2127	0.383372794455	269.495918623
8	2136	0.384960405761	269.462339323
8	2172	0.390034658958	273.374556038
8	2207	0.395612555065	278.777727317
8	2211	0.395912474273	277.13828259
8	2224	0.397324362787	275.508937943
8	2229	0.397857431167	273.173355834
8	2232	0.398710591697	273.280569035
8	2242	0.400302117945	273.835741206
8	2244	0.400632110081	272.635552605
8	2251	0.400913175958	272.301839774
8	2254	0.401603405299	270.705128273
8	2256	0.401658945086	269.758658658
8	2275	0.402788606243	270.673977832
8	2277	0.403111801073	263.460029316
8	2284	0.405206562539	264.590641395
8	2299	0.407211331735	266.170914696
8	2310	0.408822559137	261.062600071
8	2313	0.409128460551	261.30446196
8	2319	0.410349660771	261.732688792
8	2347	0.414118810823	263.648384833
8	2349	0.414288214303	263.469015902
8	2362	0.416664218129	263.591068494
8	2377	0.418967152091	263.320782797
8	2389	0.420498307364	264.509268806
8	2419	0.426598417175	266.054205191
8	2439	0.429481478104	268.884527707
8	2461	0.432017997743	266.851698681
8	2492	0.435805519982	269.84091047
8	2751	0.48	312.231594168
8	2759	0.48079664667	312.951445787
8	2787	0.485783704555	315.421326629
8	2796	0.486755792454	315.756089509
8	2807	0.48738761799	316.268238659
8	2813	0.489220106172	318.023335997
8	2834	0.49214748077	319.882195038
8	2841	0.492443886341	318.507482874
8	2845	0.492733537149	318.003857614
8	2855	0.495354634405	319.900665393
8	2869	0.497463184429	321.613705209
8	2871	0.497590714841	321.409250412
8	2880	0.498923878409	322.675901407
8	2895	0.500606310458	320.280191317
8	2901	0.502000314503	321.228996682
8	2913	0.502943607802	315.201996925
8	2938	0.50766876419	318.193162756
8	2940	0.50794903666	317.462599312
8	2947	0.509400934512	316.14824767
8	2967	0.512330144355	318.550456741
8	2970	0.512714804505	315.430646853
8	2984	0.515277770791	312.748779492
8	3008	0.517209828588	313.931028281
8	3038	0.520784706987	311.115681212
8	3091	0.526837429674	316.085556714
8	3096	0.527374790972	315.409959145
8	3106	0.528557245962	313.19017228
8	3116	0.529655292352	313.577071956
8	3125	0.530718831046	313.599527144
8	3147	0.533241968233	312.404001455
8	3171	0.537197526094	312.034254408
8	3179	0.538385615982	308.961407493
8	3181	0.538435481618	305.155789147
8	3194	0.540332041584	306.824220118
8	3220	0.544300570899	305.926399439
8	3235	0.545934712957	304.59809757
8	3241	0.547144018053	299.767044791
8	3260	0.549537646101	299.777378856
8	3283	0.552043239366	294.562849418
8	3287	0.552189015614	294.271186462
8	3294	0.55273157192	294.247942762
8	3306	0.554720383291	294.025348298
8	3312	0.555538542832	291.464497311
8	3333	0.558102332699	294.006367104
8	3348	0.56041060427	293.770367015
8	3354	0.560942560188	287.608024843
8	3363	0.562474041209	288.804467424
8	3365	0.562501952602	276.912979097
8	3384	0.565166560867	278.950896437
8	3386	0.565330748783	277.792440576
8	3805	0.63	334.767930423
8	3815	0.631333985142	335.772920915
8	3829	0.633766600744	334.125321226
8	3841	0.635550346095	334.61928961
8	3872	0.639459336677	334.401067846
8	3923	0.646570643399	339.273525431
8	3935	0.647602273926	335.534418438
8	3973	0.65283190662	328.993473356
8	3987	0.654634919743	330.191460498
8	3991	0.655094097807	329.795688586
8	4002	0.657318993099	330.07874667
8	4046	0.663991941278	335.286806559
8	4052	0.664403145285	331.891637137
8	4081	0.667300857868	333.687617195
8	4087	0.667396638467	329.008271915
8	4111	0.670735234061	326.01846734
8	4129	0.672326049102	324.130136208
8	4131	0.672391633517	324.027036247
8	4146	0.673348153196	324.050447166
8	4209	0.682093239373	331.640457874
8	4211	0.68219268744	331.566991954
8	4224	0.683372794455	330.22151026
8	4236	0.684960405761	328.694112041
8	4272	0.690034658958	329.995354802
8	4305	0.695612555065	334.934433765
8	4309	0.695912474273	332.97824857
8	4327	0.697324362787	333.611964874
8	4333	0.697857431167	325.944215456
8	4337	0.698710591697	322.963304969
8	4347	0.700302117945	323.191415243
8	4349	0.700632110081	317.273992425
8	4355	0.700913175958	313.024869361
8	4357	0.701603405299	312.143324627
8	4359	0.701658945086	310.866029699
8	4376	0.702788606243	311.672123815
8	4379	0.703111801073	310.576020406
8	4388	0.705206562539	310.751939398
8	4405	0.707211331735	307.775908562
8	4418	0.708822559137	293.387495354
8	4421	0.709128460551	292.538865236
8	4427	0.710349660771	293.200269254
8	4457	0.714118810823	295.051731216
8	4459	0.714288214303	292.536357572
8	4474	0.716664218129	294.695642946
8	4491	0.718967152091	292.747685543
8	4500	0.720498307364	291.188766581
8	4529	0.726598417175	296.887389569
8	4550	0.729481478104	299.540058548
8	4568	0.732017997743	301.566509957
8	4597	0.735805519982	302.852882571
8	4855	0.78	346.977905737
8	4864	0.78079664667	346.873385747
8	4896	0.785783704555	350.598701256
8	4903	0.786755792454	346.565100589
8	4912	0.78738761799	344.604581279
8	4921	0.789220106172	345.268694299
8	4940	0.79214748077	347.89308598
8	4948	0.792443886341	347.93394805
8	4951	0.792733537149	344.115683868
8	4960	0.795354634405	346.208840837
8	4974	0.797463184429	346.353893133
8	4976	0.797590714841	346.109530275
8	4985	0.798923878409	345.54073462
8	4996	0.800606310458	346.23821824
8	5003	0.802000314503	346.840219368
8	5014	0.802943607802	345.935776399
8	5039	0.80766876419	346.458767232
8	5042	0.80794903666	345.940269534
8	5053	0.809400934512	344.13266295
8	5075	0.812330144355	346.489646954
8	5077	0.812714804505	344.893571237
8	5094	0.815277770791	345.631598689
8	5114	0.817209828588	334.856158003
8	5146	0.820784706987	337.249728796
8	5196	0.826837429674	340.674940362
8	5200	0.827374790972	341.188707493
8	5211	0.828557245962	337.881166829
8	5219	0.829655292352	337.121993132
8	5229	0.830718831046	334.091108484
8	5250	0.833241968233	334.162385266
8	5273	0.837197526094	336.473924338
8	5282	0.838385615982	336.054323283
8	5284	0.838435481618	328.863235213
8	5299	0.840332041584	329.942347129
8	5318	0.844300570899	331.356143081
8	5332	0.845934712957	323.76107563
8	5338	0.847144018053	323.332927419
8	5360	0.849537646101	324.462415607
8	5382	0.852043239366	325.981131023
8	5385	0.852189015614	325.280684089
8	5395	0.85273157192	318.263476813
8	5406	0.854720383291	313.764477633
8	5415	0.855538542832	311.787611122
8	5432	0.858102332699	312.166550753
8	5449	0.86041060427	310.379755574
8	5455	0.860942560188	309.332045117
8	5465	0.862474041209	310.527954232
8	5467	0.862501952602	305.890539637
8	5483	0.865166560867	308.383970048
8	5485	0.865330748783	307.611750284
8	5877	0.93	372.164520712
8	5886	0.931333985142	371.163587462
8	5899	0.933766600744	372.515428174
8	5914	0.935550346095	373.59135454
8	5942	0.939459336677	372.7625075
8	5990	0.946570643399	378.899669237
8	6002	0.947602273926	378.745818988
8	6039	0.95283190662	381.013576394
8	6050	0.954634919743	381.232915304
8	6054	0.955094097807	380.713718901
8	6066	0.957318993099	382.662858282
8	6111	0.963991941278	389.019816517
8	6115	0.964403145285	388.771270561
8	6141	0.967300857868	385.881531004
8	6147	0.967396638467	385.069908931
8	6170	0.970735234061	386.329857487
8	6188	0.972326049102	383.516784468
8	6190	0.972391633517	382.742919474
8	6202	0.973348153196	382.661136075
8	6261	0.982093239373	390.611272729
8	6263	0.98219268744	389.558574048
8	6277	0.983372794455	390.344207652
8	6285	0.984960405761	389.351520502
8	6321	0.990034658958	393.825775845
8	6354	0.995612555065	394.5639945
8	6357	0.995912474273	394.018587354
8	6372	0.997324362787	395.058715095
8	6379	0.997857431167	395.272220564
8	6382	0.998710591697	395.657567329
8	6399	1.000302117945	396.511934564
8	6403	1.000632110081	392.028464628
8	6410	1.000913175958	390.232237468
8	6412	1.001603405299	389.739885239
8	6414	1.001658945086	388.048649411
8	6432	1.002788606243	382.659596364
8	6434	1.003111801073	380.482183635
8	6442	1.005206562539	380.086572589
8	6453	1.007211331735	377.856883716
8	6465	1.008822559137	379.337696629
8	6469	1.009128460551	378.214329716
8	6475	1.010349660771	378.484519603
8	6507	1.014118810823	381.690019249
8	6509	1.014288214303	377.688639154
8	6520	1.016664218129	377.287402046
8	6535	1.018967152091	378.633192262
8	6547	1.020498307364	377.969243823
8	6573	1.026598417175	379.965217398
8	6594	1.029481478104	375.905303702
8	6619	1.032017997743	377.818151448
8	6649	1.035805519982	377.877655706
8	6911	1.08	419.277621612
8	6919	1.08079664667	419.605825725
8	6948	1.085783704555	420.509409915
8	6956	1.086755792454	419.851285793
8	6965	1.08738761799	420.382890223
8	6972	1.089220106172	422.141112339
8	6995	1.09214748077	422.547821806
8	7002	1.092443886341	419.385292756
8	7005	1.092733537149	419.500858272
8	7017	1.095354634405	421.408179759
8	7033	1.097463184429	420.098849233
8	7035	1.097590714841	418.432206509
8	7044	1.098923878409	418.635926405
8	7052	1.100606310458	415.684222161
8	7062	1.102000314503	416.824243412
8	7072	1.102943607802	414.829134755
8	7101	1.10766876419	419.128671649
8	7103	1.10794903666	417.362293221
8	7111	1.109400934512	416.18153201
8	7130	1.112330144355	419.001047479
8	7132	1.112714804505	418.039477438
8	7147	1.115277770791	420.411327563
8	7171	1.117209828588	421.197994625
8	7206	1.120784706987	423.549775186
8	7257	1.126837429674	428.25881939
8	7261	1.127374790972	420.970268
8	7272	1.128557245962	421.75941438
8	7281	1.129655292352	421.870660474
8	7289	1.130718831046	419.049496828
8	7310	1.133241968233	418.311423297
8	7342	1.137197526094	420.578338547
8	7352	1.138385615982	421.198046511
8	7354	1.138435481618	420.888470387
8	7368	1.140332041584	419.812899874
8	7388	1.144300570899	413.554099268
8	7401	1.145934712957	411.645401806
8	7407	1.147144018053	399.619089671
8	7428	1.149537646101	401.972506645
8	7453	1.152043239366	402.262939804
8	7456	1.152189015614	402.117594045
8	7465	1.15273157192	400.628121892
8	7480	1.154720383291	402.342038407
8	7486	1.155538542832	400.807532019
8	7505	1.158102332699	400.332074927
8	7522	1.16041060427	402.443910352
8	7527	1.160942560188	398.549856458
8	7535	1.162474041209	398.060094104
8	7537	1.162501952602	392.86072563
8	7559	1.165166560867	394.951721556
8	7561	1.165330748783	387.565074345
8	7955	1.23	449.503999495
8	7966	1.231333985142	450.045503723
8	7975	1.233766600744	451.569140046
8	7988	1.235550346095	452.64926094
8	8016	1.239459336677	455.320295123
8	8065	1.246570643399	462.100019841
8	8077	1.247602273926	461.716943159
8	8108	1.25283190662	464.403350189
8	8120	1.254634919743	462.714505069
8	8125	1.255094097807	459.209712597
8	8135	1.257318993099	461.210673024
8	8174	1.263991941278	463.522181479
8	8178	1.264403145285	462.755974997
8	8203	1.267300857868	465.556386916
8	8209	1.267396638467	463.886633809
8	8230	1.270735234061	462.687236262
8	8250	1.272326049102	463.800697164
8	8252	1.272391633517	463.51276433
8	8265	1.273348153196	463.304988019
8	8325	1.282093239373	467.406290842
8	8327	1.28219268744	466.61673461
8	8345	1.283372794455	464.616401017
8	8355	1.284960405761	465.409383271
8	8390	1.290034658958	467.113869946
8	8423	1.295612555065	470.536437244
8	8426	1.295912474273	465.991594626
8	8440	1.297324362787	457.326941251
8	8446	1.297857431167	457.406709961
8	8449	1.298710591697	446.857249566
8	8457	1.300302117945	447.934526707
8	8459	1.300632110081	447.78358095
8	8465	1.300913175958	445.59452176
8	8468	1.301603405299	445.987324013
8	8470	1.301658945086	444.447715838
8	8488	1.302788606243	443.359850072
8	8490	1.303111801073	443.047116905
8	8500	1.305206562539	443.515441953
8	8512	1.307211331735	444.985953642
8	8527	1.308822559137	442.875195973
8	8530	1.309128460551	439.681977544
8	8534	1.310349660771	437.950933936
8	8568	1.314118810823	434.439164745
8	8571	1.314288214303	431.084111199
8	8583	1.316664218129	430.985129522
8	8597	1.318967152091	431.291415773
8	8610	1.320498307364	430.843602679
8	8641	1.326598417175	436.514246661
8	8661	1.329481478104	434.482627351
8	8679	1.332017997743	436.967009918
8	8713	1.335805519982	435.87117552
8	8989	1.38	479.81472778
8	8998	1.38079664667	479.950115578
8	9025	1.385783704555	483.430363521
8	9030	1.386755792454	484.396642755
8	9039	1.38738761799	484.182914256
8	9049	1.389220106172	484.938671609
8	9068	1.39214748077	487.659293102
8	9075	1.392443886341	480.922583075
8	9079	1.392733537149	480.873746984
8	9088	1.395354634405	482.687300063
8	9101	1.397463184429	483.418585239
8	9103	1.397590714841	479.512493591
8	9114	1.398923878409	479.492137151
8	9123	1.400606310458	479.314391959
8	9132	1.402000314503	469.625854176
8	9143	1.402943607802	470.541356885
8	9173	1.40766876419	474.211576662
8	9175	1.40794903666	473.126384385
8	9185	1.409400934512	473.700094446
8	9204	1.412330144355	472.888974708
8	9209	1.412714804505	471.770209786
8	9223	1.415277770791	470.569831501
8	9240	1.417209828588	470.701865945
8	9273	1.420784706987	471.790459785
8	9319	1.426837429674	476.204936822
8	9326	1.427374790972	474.399105235
8	9337	1.428557245962	467.906688055
8	9346	1.429655292352	468.646439113
8	9356	1.430718831046	464.626829935
8	9376	1.433241968233	465.468974047
8	9400	1.437197526094	467.746781554
8	9412	1.438385615982	459.035070181
8	9414	1.438435481618	457.880354271
8	9428	1.440332041584	450.91793327
8	9451	1.444300570899	453.022739213
8	9466	1.445934712957	449.26584636
8	9471	1.447144018053	448.641713628
8	9494	1.449537646101	449.537646101
8	9512	1.452043239366	451.598882266
8	9515	1.452189015614	447.317220974
8	9522	1.45273157192	438.83452625
8	9534	1.454720383291	437.995175991
8	9539	1.455538542832	435.210768472
8	9561	1.458102332699	436.374077939
8	9576	1.46041060427	435.58149982
8	9582	1.460942560188	433.605210518
8	9591	1.462474041209	431.217513429
8	9593	1.462501952602	430.473858512
8	9613	1.465166560867	432.576688487
8	9616	1.465330748783	432.063583263
8	10021	1.53	493.53573066
8	10031	1.531333985142	491.976050242
8	10042	1.533766600744	492.098483254
8	10052	1.535550346095	493.578130975
8	10085	1.539459336677	495.723012117
8	10131	1.546570643399	497.300153649
8	10143	1.547602273926	493.028530186
8	10179	1.55283190662	497.41402334
8	10191	1.554634919743	498.727743503
8	10196	1.555094097807	493.976889767
8	10207	1.557318993099	491.978855119
8	10253	1.563991941278	496.762355418
8	10258	1.564403145285	495.175359095
8	10287	1.567300857868	495.816601578
8	10293	1.567396638467	493.730984417
8	10311	1.570735234061	485.322481451
8	10331	1.572326049102	486.755085502
8	10333	1.572391633517	486.602902597
8	10345	1.573348153196	486.500960206
8	10414	1.582093239373	491.553291083
8	10416	1.58219268744	488.18644708
8	10431	1.583372794455	488.966733895
8	10441	1.584960405761	488.595223261
8	10481	1.590034658958	488.567451388
8	10514	1.595612555065	489.914810255
8	10517	1.595912474273	486.672471763
8	10533	1.597324362787	486.192186707
8	10538	1.597857431167	484.242526827
8	10543	1.598710591697	478.978568927
8	10554	1.600302117945	480.222120955
8	10556	1.600632110081	480.024436941
8	10564	1.600913175958	478.477238328
8	10567	1.601603405299	478.741501309
8	10569	1.601658945086	477.558618916
8	10587	1.602788606243	476.417904153
8	10589	1.603111801073	476.522132873
8	10599	1.605206562539	477.754990949
8	10619	1.607211331735	475.167644465
8	10632	1.608822559137	474.664204157
8	10637	1.609128460551	474.073708971
8	10643	1.610349660771	474.769095631
8	10673	1.614118810823	476.980942183
8	10676	1.614288214303	474.496400333
8	10691	1.616664218129	475.934893559
8	10702	1.618967152091	476.590985281
8	10714	1.620498307364	476.526606004
8	10744	1.626598417175	478.163898685
8	10766	1.629481478104	476.761421514
8	10788	1.632017997743	478.749819893
8	10820	1.635805519982	481.923404722
8	11093	1.68	525.51038047
8	11100	1.68079664667	517.36494112
8	11128	1.685783704555	519.032730935
8	11134	1.686755792454	517.479239794
8	11142	1.68738761799	509.63952456
8	11151	1.689220106172	508.943623132
8	11175	1.69214748077	511.69176484
8	11183	1.692443886341	510.413288521
8	11186	1.692733537149	510.104761269
8	11200	1.695354634405	510.644699785
8	11212	1.697463184429	512.691619819
8	11215	1.697590714841	512.479923581
8	11224	1.698923878409	513.533977769
8	11237	1.700606310458	512.935100588
8	11242	1.702000314503	511.797741773
8	11252	1.702943607802	511.350367822
8	11281	1.70766876419	513.4415896
8	11283	1.70794903666	506.78585705
8	11293	1.709400934512	508.020122872
8	11314	1.712330144355	509.823014035
8	11316	1.712714804505	507.830790395
8	11331	1.715277770791	504.160554801
8	11352	1.717209828588	503.932504018
8	11387	1.720784706987	501.002388497
8	11434	1.726837429674	504.433811684
8	11438	1.727374790972	503.747823262
8	11450	1.728557245962	504.791233882
8	11460	1.729655292352	499.333968642
8	11469	1.730718831046	500.374185916
8	11490	1.733241968233	498.289179823
8	11515	1.737197526094	501.654366404
8	11525	1.738385615982	502.183671202
8	11527	1.738435481618	500.654528378
8	11540	1.740332041584	500.665410444
8	11562	1.744300570899	504.487239189
8	11577	1.745934712957	504.992997157
8	11585	1.747144018053	504.201276313
8	11609	1.749537646101	506.181922781
8	11633	1.752043239366	507.622814436
8	11636	1.752189015614	507.018467294
8	11643	1.75273157192	505.98325211
8	11654	1.754720383291	506.717466871
8	11660	1.755538542832	505.438051862
8	11678	1.758102332699	502.188653809
8	11697	1.76041060427	501.80199096
8	11702	1.760942560188	502.082806358
8	11714	1.762474041209	484.530272059
8	11716	1.762501952602	484.282979192
8	11733	1.765166560867	486.650692247
8	11735	1.765330748783	486.692795743
8	12138	1.83	547.4846674
8	12146	1.831333985142	548.697215122
8	12155	1.833766600744	550.792241004
8	12166	1.835550346095	549.447603365
8	12200	1.839459336677	552.643720627
8	12245	1.846570643399	556.153575169
8	12259	1.847602273926	556.931218526
8	12292	1.85283190662	561.28774247
8	12304	1.854634919743	562.300074063
8	12308	1.855094097807	560.184958007
8	12317	1.857318993099	559.842127729
8	12353	1.863991941278	562.734119858
8	12358	1.864403145285	559.929879415
8	12381	1.867300857868	562.741793868
8	12387	1.867396638467	562.554678657
8	12411	1.870735234061	558.541628591
8	12430	1.872326049102	559.491063852
8	12432	1.872391633517	558.278431917
8	12445	1.873348153196	559.124094356
8	12509	1.882093239373	567.196443853
8	12511	1.88219268744	565.0773595
8	12524	1.883372794455	563.958452045
8	12533	1.884960405761	564.896069081
8	12569	1.890034658958	567.469974508
8	12599	1.895612555065	570.662329745
8	12603	1.895912474273	570.474635913
8	12616	1.897324362787	565.761604667
8	12623	1.897857431167	564.656185197
8	12626	1.898710591697	564.117078137
8	12637	1.900302117945	563.614509535
8	12639	1.900632110081	561.456919411
8	12646	1.900913175958	561.330650568
8	12648	1.901603405299	559.140369159
8	12650	1.901658945086	558.674532706
8	12668	1.902788606243	554.949383663
8	12671	1.903111801073	554.204352203
8	12678	1.905206562539	554.744290669
8	12693	1.907211331735	555.536979305
8	12707	1.908822559137	555.488480017
8	12710	1.909128460551	554.893919811
8	12720	1.910349660771	552.284142801
8	12747	1.914118810823	555.209942023
8	12749	1.914288214303	548.851354573
8	12763	1.916664218129	547.856431949
8	12778	1.918967152091	549.051479041
8	12787	1.920498307364	549.745153534
8	12824	1.926598417175	553.293774545
8	12843	1.929481478104	553.565370444
8	12862	1.932017997743	553.942187173
8	12896	1.935805519982	557.395679822
8	13169	1.98	599.24563379
8	13176	1.98079664667	599.73997205
8	13204	1.985783704555	602.550212165
8	13209	1.986755792454	596.936636004
8	13219	1.98738761799	596.73983895
8	13229	1.989220106172	596.584040982
8	13251	1.99214748077	593.44004757
8	13258	1.992443886341	586.295248841
8	13261	1.992733537149	585.152725219
8	13271	1.995354634405	586.494214725
8	13285	1.997463184429	587.667344919
8	13287	1.997590714841	585.303160941
8	13297	1.998923878409	586.352309139
8	13311	2.000606310458	586.751781868
8	13319	2.002000314503	588.102036303
8	13331	2.002943607802	583.646451062
8	13362	2.00766876419	584.42691971
8	13365	2.00794903666	580.88184996
8	13373	2.009400934512	582.223510792
8	13390	2.012330144355	584.469739845
8	13392	2.012714804505	582.343535865
8	13406	2.015277770791	583.648609931
8	13424	2.017209828588	583.381269728
8	13458	2.020784706987	585.457468777
8	13505	2.026837429674	589.190616534
8	13510	2.027374790972	589.246121372
8	13522	2.028557245962	583.446360782
8	13532	2.029655292352	584.343433802
8	13542	2.030718831046	585.326324466
8	13567	2.033241968233	585.114827563
8	13594	2.037197526094	582.673537584
8	13604	2.038385615982	581.568133562
8	13606	2.038435481618	581.367237898
8	13617	2.040332041584	577.356784084
8	13635	2.044300570899	579.728801669
8	13649	2.045934712957	579.557954227
8	13657	2.047144018053	574.774698213
8	13682	2.049537646101	576.586750071
8	13700	2.052043239366	575.517355776
8	13703	2.052189015614	567.840411044
8	13711	2.05273157192	564.46833879
8	13723	2.054720383291	563.754182431
8	13730	2.055538542832	562.817863772
8	13750	2.058102332699	565.301579419
8	13769	2.06041060427	567.23752536
8	13775	2.060942560188	567.225122098
8	13783	2.062474041209	564.668452139
8	13785	2.062501952602	563.589531202
8	13805	2.065166560867	562.979544567
8	13807	2.065330748783	561.023216163
8	14221	2.13	619.75987162
8	14232	2.131333985142	620.943403982
8	14240	2.133766600744	621.270004414
8	14253	2.135550346095	621.364791475
8	14281	2.139459336677	624.317210627
8	14327	2.146570643399	631.122791199
8	14338	2.147602273926	629.414235556
8	14376	2.15283190662	633.90985263
8	14388	2.154634919743	618.877450483
8	14392	2.155094097807	619.156651017
8	14403	2.157318993099	620.789862479
8	14446	2.163991941278	626.699667788
8	14451	2.164403145285	625.675281455
8	14477	2.167300857868	619.512557918
8	14484	2.167396638467	619.205842227
8	14506	2.170735234061	618.663386811
8	14525	2.172326049102	619.131805842
8	14527	2.172391633517	619.129850597
8	14540	2.173348153196	617.338904226
8	14602	2.182093239373	625.172912953
8	14604	2.18219268744	624.30006492
8	14616	2.183372794455	623.487929135
8	14625	2.184960405761	623.387570941
8	14660	2.190034658958	627.797609228
8	14690	2.195612555065	631.315971395
8	14693	2.195912474273	631.462141023
8	14708	2.197324362787	632.458308507
8	14714	2.197857431167	630.716943077
8	14717	2.198710591697	626.941647607
8	14729	2.200302117945	625.622415785
8	14731	2.200632110081	625.343290541
8	14737	2.200913175958	625.424043138
8	14739	2.201603405299	625.804819979
8	14741	2.201658945086	625.055599976
8	14760	2.202788606243	625.390897933
8	14762	2.203111801073	624.159618673
8	14770	2.205206562539	626.176135429
8	14783	2.207211331735	626.273072975
8	14798	2.208822559137	626.162543407
8	14802	2.209128460551	625.196262481
8	14809	2.210349660771	626.067064591
8	14840	2.214118810823	624.346274383
8	14842	2.214288214303	621.997983663
8	14855	2.216664218129	622.321552849
8	14869	2.218967152091	622.502829141
8	14881	2.220498307364	622.611130394
8	14913	2.226598417175	625.836576655
8	14938	2.229481478104	628.023609074
8	14956	2.232017997743	627.689552763
8	14983	2.235805519982	629.692387182
8	15241	2.28	667.87744048
8	15249	2.28079664667	665.64846631
8	15274	2.285783704555	669.204948895
8	15280	2.286755792454	670.135761124
8	15288	2.28738761799	666.2443898
8	15296	2.289220106172	663.463895542
8	15317	2.29214748077	652.68626355
8	15324	2.292443886341	652.973788871
8	15328	2.292733537149	652.959302979
8	15338	2.295354634405	654.042616715
8	15351	2.297463184429	653.279668759
8	15353	2.297590714841	643.442073141
8	15361	2.298923878409	644.737521199
8	15371	2.300606310458	646.283492498
8	15377	2.302000314503	642.206728203
8	15390	2.302943607802	642.977645922
8	15422	2.30766876419	643.55662941
8	15425	2.30794903666	643.26094232
8	15437	2.309400934512	644.061393862
8	15457	2.312330144355	645.110650895
8	15460	2.312714804505	642.905864195
8	15473	2.315277770791	645.300899121
8	15490	2.317209828588	644.179137368
8	15521	2.320784706987	646.947308897
8	15571	2.326837429674	651.086787864
8	15577	2.327374790972	648.732280932
8	15588	2.328557245962	649.235906332
8	15597	2.329655292352	648.021144742
8	15605	2.330718831046	648.855567136
8	15628	2.333241968233	645.121209793
8	15658	2.337197526094	647.115061204
8	15674	2.338385615982	644.413112132
8	15676	2.338435481618	633.060908198
8	15689	2.340332041584	634.101842824
8	15707	2.344300570899	635.114198429
8	15723	2.345934712957	635.934402687
8	15728	2.347144018053	636.666465943
8	15750	2.349537646101	637.302533801
8	15771	2.352043239366	639.194962816
8	15775	2.352189015614	639.202354354
8	15782	2.35273157192	638.43625796
8	15794	2.354720383291	639.591376751
8	15800	2.355538542832	635.759534712
8	15817	2.358102332699	637.221430559
8	15833	2.36041060427	629.39786259
8	15838	2.360942560188	622.756183818
8	15846	2.362474041209	619.758786979
8	15848	2.362501952602	617.542927632
8	15867	2.365166560867	618.582557947
8	15870	2.365330748783	618.603499583
8	16261	2.43	681.09919403
8	16271	2.431333985142	681.804968232
8	16281	2.433766600744	682.255514924
8	16291	2.435550346095	681.651967625
8	16319	2.439459336677	683.149835587
8	16374	2.446570643399	688.924014499
8	16388	2.447602273926	688.396234826
8	16418	2.45283190662	692.74561946
8	16430	2.454634919743	693.689209003
8	16434	2.455094097807	693.023373067
8	16445	2.457318993099	694.695512779
8	16491	2.463991941278	698.639617048
8	16496	2.464403145285	694.561235115
8	16521	2.467300857868	692.939341698
8	16527	2.467396638467	692.806306487
8	16550	2.470735234061	693.770419991
8	16569	2.472326049102	692.996298502
8	16571	2.472391633517	691.610223537
8	16586	2.473348153196	692.499430586
8	16654	2.482093239373	699.922226673
8	16656	2.48219268744	699.04564291
8	16669	2.483372794455	697.914558715
8	16681	2.484960405761	698.781752621
8	16718	2.490034658958	701.790791678
8	16752	2.495612555065	704.177508285