version 2
run simpleNet-0-20181107-05:32:43-31373
attr configname simpleNet
attr datetime 20181107-05:32:43
attr experiment simpleNet
attr inifile omnetpp.ini
attr iterationvars ""
attr iterationvarsf ""
attr measurement ""
attr network simpleNet
attr processid 31373
attr repetition 0
attr replication #0
attr resultdir results
attr runnumber 0
attr seedset 0

vector 0 simpleNet.node[0] numInQueue:vector ETV
attr interpolationmode none
attr source numInQueue
attr title "total num in queue, vector"
vector 1 simpleNet.node[0] numProcessed:vector ETV
attr interpolationmode none
attr source numProcessed
attr title "num processed in statRate time, vector"
vector 2 simpleNet.node[1] numInQueue:vector ETV
attr interpolationmode none
attr source numInQueue
attr title "total num in queue, vector"
vector 3 simpleNet.node[1] numProcessed:vector ETV
attr interpolationmode none
attr source numProcessed
attr title "num processed in statRate time, vector"
vector 4 simpleNet.node[2] numInQueue:vector ETV
attr interpolationmode none
attr source numInQueue
attr title "total num in queue, vector"
vector 5 simpleNet.node[2] numProcessed:vector ETV
attr interpolationmode none
attr source numProcessed
attr title "num processed in statRate time, vector"
vector 6 simpleNet.node[3] numInQueue:vector ETV
attr interpolationmode none
attr source numInQueue
attr title "total num in queue, vector"
vector 7 simpleNet.node[3] numProcessed:vector ETV
attr interpolationmode none
attr source numProcessed
attr title "num processed in statRate time, vector"
vector 8 simpleNet.node[0] completionTime:vector ETV
attr interpolationmode none
attr source completionTime
attr title "completionTime, vector"
vector 9 simpleNet.node[3] completionTime:vector ETV
attr interpolationmode none
attr source completionTime
attr title "completionTime, vector"
0	2	0	0
0	977	0.5	0
0	1731	1	0
0	2485	1.5	0
0	3239	2	0
0	3993	2.5	0
0	4747	3	0
0	5501	3.5	0
0	6255	4	0
0	7009	4.5	0
0	7763	5	0
0	8517	5.5	0
0	9271	6	0
0	10025	6.5	0
0	10779	7	0
0	11533	7.5	0
0	12287	8	0
0	13041	8.5	0
0	13795	9	0
0	14549	9.5	0
0	15301	10	0
0	15485	10.5	0
1	2	0	0
1	977	0.5	77
1	1731	1	50
1	2485	1.5	50
1	3239	2	50
1	3993	2.5	50
1	4747	3	50
1	5501	3.5	50
1	6255	4	50
1	7009	4.5	50
1	7763	5	50
1	8517	5.5	50
1	9271	6	50
1	10025	6.5	50
1	10779	7	50
1	11533	7.5	50
1	12287	8	50
1	13041	8.5	50
1	13795	9	50
1	14549	9.5	50
1	15301	10	50
1	15485	10.5	23
2	3	0	0
2	978	0.5	75
2	1732	1	200
2	2486	1.5	325
2	3240	2	450
2	3994	2.5	575
2	4748	3	700
2	5502	3.5	825
2	6256	4	950
2	7010	4.5	1075
2	7764	5	1200
2	8518	5.5	1325
2	9272	6	1450
2	10026	6.5	1575
2	10780	7	1700
2	11534	7.5	1825
2	12288	8	1950
2	13042	8.5	2075
2	13796	9	2200
2	14550	9.5	2325
2	15302	10	2450
2	15486	10.5	2450
3	3	0	0
3	978	0.5	152
3	1732	1	100
3	2486	1.5	100
3	3240	2	100
3	3994	2.5	100
3	4748	3	100
3	5502	3.5	100
3	6256	4	100
3	7010	4.5	100
3	7764	5	100
3	8518	5.5	100
3	9272	6	100
3	10026	6.5	100
3	10780	7	100
3	11534	7.5	100
3	12288	8	100
3	13042	8.5	100
3	13796	9	100
3	14550	9.5	100
3	15302	10	100
3	15486	10.5	48
4	4	0	0
4	979	0.5	0
4	1733	1	0
4	2487	1.5	0
4	3241	2	0
4	3995	2.5	0
4	4749	3	0
4	5503	3.5	0
4	6257	4	0
4	7011	4.5	0
4	7765	5	0
4	8519	5.5	0
4	9273	6	0
4	10027	6.5	0
4	10781	7	0
4	11535	7.5	0
4	12289	8	0
4	13043	8.5	0
4	13797	9	0
4	14551	9.5	0
4	15303	10	0
4	15487	10.5	0
5	4	0	0
5	979	0.5	154
5	1733	1	100
5	2487	1.5	100
5	3241	2	100
5	3995	2.5	100
5	4749	3	100
5	5503	3.5	100
5	6257	4	100
5	7011	4.5	100
5	7765	5	100
5	8519	5.5	100
5	9273	6	100
5	10027	6.5	100
5	10781	7	100
5	11535	7.5	100
5	12289	8	100
5	13043	8.5	100
5	13797	9	100
5	14551	9.5	100
5	15303	10	100
5	15487	10.5	46
6	6	0	0
6	980	0.5	0
6	1734	1	0
6	2488	1.5	0
6	3242	2	0
6	3996	2.5	0
6	4750	3	0
6	5504	3.5	0
6	6258	4	0
6	7012	4.5	0
6	7766	5	0
6	8520	5.5	0
6	9274	6	0
6	10028	6.5	0
6	10782	7	0
6	11536	7.5	0
6	12290	8	0
6	13044	8.5	0
6	13798	9	0
6	14552	9.5	0
6	15304	10	0
6	15488	10.5	0
7	6	0	0
7	980	0.5	76
7	1734	1	50
7	2488	1.5	50
7	3242	2	50
7	3996	2.5	50
7	4750	3	50
7	5504	3.5	50
7	6258	4	50
7	7012	4.5	50
7	7766	5	50
7	8520	5.5	50
7	9274	6	50
7	10028	6.5	50
7	10782	7	50
7	11536	7.5	50
7	12290	8	50
7	13044	8.5	50
7	13798	9	50
7	14552	9.5	50
7	15304	10	50
7	15488	10.5	24
8	249	0.18	0.18
8	260	0.183333333333	0.18
8	269	0.186666666667	0.18
8	282	0.19	0.18
8	291	0.193333333333	0.18
8	300	0.196666666667	0.18
8	312	0.2	0.18
8	323	0.203333333333	0.18
8	332	0.206666666667	0.18
8	345	0.21	0.18
8	356	0.213333333333	0.18
8	366	0.216666666667	0.18
8	379	0.22	0.18
8	391	0.223333333333	0.18
8	401	0.226666666667	0.18
8	414	0.23	0.18
8	425	0.233333333333	0.18
8	434	0.236666666667	0.18
8	446	0.24	0.18
8	457	0.243333333333	0.18
8	466	0.246666666667	0.18
8	479	0.25	0.18
8	490	0.253333333333	0.18
8	499	0.256666666667	0.18
8	510	0.26	0.18
8	521	0.263333333333	0.18
8	529	0.266666666667	0.18
8	541	0.27	0.18
8	551	0.273333333333	0.18
8	559	0.276666666667	0.18
8	570	0.28	0.18
8	581	0.283333333333	0.18
8	589	0.286666666667	0.18
8	600	0.29	0.18
8	610	0.293333333333	0.18
8	617	0.296666666667	0.18
8	627	0.3	0.18
8	637	0.303333333333	0.18
8	644	0.306666666667	0.18
8	655	0.31	0.18
8	665	0.313333333333	0.18
8	672	0.316666666667	0.18
8	680	0.32	0.18
8	690	0.323333333333	0.18
8	695	0.326666666667	0.18
8	704	0.33	0.18
8	712	0.333333333333	0.18
8	717	0.336666666667	0.18
8	725	0.34	0.18
8	735	0.343333333333	0.18
8	740	0.346666666667	0.18
8	753	0.35	0.18
8	788	0.37	0.196666666667
8	820	0.39	0.213333333333
8	850	0.41	0.23
8	880	0.43	0.246666666667
8	910	0.45	0.263333333333
8	940	0.47	0.28
8	970	0.49	0.296666666667
8	1004	0.51	0.313333333333
8	1034	0.53	0.33
8	1064	0.55	0.346666666667
8	1094	0.57	0.363333333333
8	1124	0.59	0.38
8	1154	0.61	0.396666666667
8	1184	0.63	0.413333333333
8	1214	0.65	0.43
8	1244	0.67	0.446666666667
8	1274	0.69	0.463333333333
8	1304	0.71	0.48
8	1334	0.73	0.496666666667
8	1364	0.75	0.513333333333
8	1394	0.77	0.53
8	1424	0.79	0.546666666667
8	1454	0.81	0.563333333333
8	1484	0.83	0.58
8	1514	0.85	0.596666666667
8	1544	0.87	0.613333333333
8	1574	0.89	0.63
8	1604	0.91	0.646666666667
8	1634	0.93	0.663333333333
8	1664	0.95	0.68
8	1694	0.97	0.696666666667
8	1724	0.99	0.713333333333
8	1758	1.01	0.73
8	1788	1.03	0.746666666667
8	1818	1.05	0.763333333333
8	1848	1.07	0.78
8	1878	1.09	0.796666666667
8	1908	1.11	0.813333333333
8	1938	1.13	0.83
8	1968	1.15	0.846666666667
8	1998	1.17	0.863333333333
8	2028	1.19	0.88
8	2058	1.21	0.896666666667
8	2088	1.23	0.913333333333
8	2118	1.25	0.93
8	2148	1.27	0.946666666667
8	2178	1.29	0.963333333333
8	2208	1.31	0.98
8	2238	1.33	0.996666666667
8	2268	1.35	1.013333333333
8	2298	1.37	1.03
8	2328	1.39	1.046666666667
8	2358	1.41	1.063333333333
8	2388	1.43	1.08
8	2418	1.45	1.096666666667
8	2448	1.47	1.113333333333
8	2478	1.49	1.13
8	2512	1.51	1.146666666667
8	2542	1.53	1.163333333333
8	2572	1.55	1.18
8	2602	1.57	1.196666666667
8	2632	1.59	1.213333333333
8	2662	1.61	1.23
8	2692	1.63	1.246666666667
8	2722	1.65	1.263333333333
8	2752	1.67	1.28
8	2782	1.69	1.296666666667
8	2812	1.71	1.313333333333
8	2842	1.73	1.33
8	2872	1.75	1.346666666667
8	2902	1.77	1.363333333333
8	2932	1.79	1.38
8	2962	1.81	1.396666666667
8	2992	1.83	1.413333333333
8	3022	1.85	1.43
8	3052	1.87	1.446666666667
8	3082	1.89	1.463333333333
8	3112	1.91	1.48
8	3142	1.93	1.496666666667
8	3172	1.95	1.513333333333
8	3202	1.97	1.53
8	3232	1.99	1.546666666667
8	3266	2.01	1.563333333333
8	3296	2.03	1.58
8	3326	2.05	1.596666666667
8	3356	2.07	1.613333333333
8	3386	2.09	1.63
8	3416	2.11	1.646666666667
8	3446	2.13	1.663333333333
8	3476	2.15	1.68
8	3506	2.17	1.696666666667
8	3536	2.19	1.713333333333
8	3566	2.21	1.73
8	3596	2.23	1.746666666667
8	3626	2.25	1.763333333333
8	3656	2.27	1.78
8	3686	2.29	1.796666666667
8	3716	2.31	1.813333333333
8	3746	2.33	1.83
8	3776	2.35	1.846666666667
8	3806	2.37	1.863333333333
8	3836	2.39	1.88
8	3866	2.41	1.896666666667
8	3896	2.43	1.913333333333
8	3926	2.45	1.93
8	3956	2.47	1.946666666667
8	3986	2.49	1.963333333333
8	4020	2.51	1.98
8	4050	2.53	1.996666666667
8	4080	2.55	2.013333333333
8	4110	2.57	2.03
8	4140	2.59	2.046666666667
8	4170	2.61	2.063333333333
8	4200	2.63	2.08
8	4230	2.65	2.096666666667
8	4260	2.67	2.113333333333
8	4290	2.69	2.13
8	4320	2.71	2.146666666667
8	4350	2.73	2.163333333333
8	4380	2.75	2.18
8	4410	2.77	2.196666666667
8	4440	2.79	2.213333333333
8	4470	2.81	2.23
8	4500	2.83	2.246666666667
8	4530	2.85	2.263333333333
8	4560	2.87	2.28
8	4590	2.89	2.296666666667
8	4620	2.91	2.313333333333
8	4650	2.93	2.33
8	4680	2.95	2.346666666667
8	4710	2.97	2.363333333333
8	4740	2.99	2.38
8	4774	3.01	2.396666666667
8	4804	3.03	2.413333333333
8	4834	3.05	2.43
8	4864	3.07	2.446666666667
8	4894	3.09	2.463333333333
8	4924	3.11	2.48
8	4954	3.13	2.496666666667
8	4984	3.15	2.513333333333
8	5014	3.17	2.53
8	5044	3.19	2.546666666667
8	5074	3.21	2.563333333333
8	5104	3.23	2.58
8	5134	3.25	2.596666666667
8	5164	3.27	2.613333333333
8	5194	3.29	2.63
8	5224	3.31	2.646666666667
8	5254	3.33	2.663333333333
8	5284	3.35	2.68
8	5314	3.37	2.696666666667
8	5344	3.39	2.713333333333
8	5374	3.41	2.73
8	5404	3.43	2.746666666667
8	5434	3.45	2.763333333333
8	5464	3.47	2.78
8	5494	3.49	2.796666666667
8	5528	3.51	2.813333333333
8	5558	3.53	2.83
8	5588	3.55	2.846666666667
8	5618	3.57	2.863333333333
8	5648	3.59	2.88
8	5678	3.61	2.896666666667
8	5708	3.63	2.913333333333
8	5738	3.65	2.93
8	5768	3.67	2.946666666667
8	5798	3.69	2.963333333333
8	5828	3.71	2.98
8	5858	3.73	2.996666666667
8	5888	3.75	3.013333333333
8	5918	3.77	3.03
8	5948	3.79	3.046666666667
8	5978	3.81	3.063333333333
8	6008	3.83	3.08
8	6038	3.85	3.096666666667
8	6068	3.87	3.113333333333
8	6098	3.89	3.13
8	6128	3.91	3.146666666667
8	6158	3.93	3.163333333333
8	6188	3.95	3.18
8	6218	3.97	3.196666666667
8	6248	3.99	3.213333333333
8	6282	4.01	3.23
8	6312	4.03	3.246666666667
8	6342	4.05	3.263333333333
8	6372	4.07	3.28
8	6402	4.09	3.296666666667
8	6432	4.11	3.313333333333
8	6462	4.13	3.33
8	6492	4.15	3.346666666667
8	6522	4.17	3.363333333333
8	6552	4.19	3.38
8	6582	4.21	3.396666666667
8	6612	4.23	3.413333333333
8	6642	4.25	3.43
8	6672	4.27	3.446666666667
8	6702	4.29	3.463333333333
8	6732	4.31	3.48
8	6762	4.33	3.496666666667
8	6792	4.35	3.513333333333
8	6822	4.37	3.53
8	6852	4.39	3.546666666667
8	6882	4.41	3.563333333333
8	6912	4.43	3.58
8	6942	4.45	3.596666666667
8	6972	4.47	3.613333333333
8	7002	4.49	3.63
8	7036	4.51	3.646666666667
8	7066	4.53	3.663333333333
8	7096	4.55	3.68
8	7126	4.57	3.696666666667
8	7156	4.59	3.713333333333
8	7186	4.61	3.73
8	7216	4.63	3.746666666667
8	7246	4.65	3.763333333333
8	7276	4.67	3.78
8	7306	4.69	3.796666666667
8	7336	4.71	3.813333333333
8	7366	4.73	3.83
8	7396	4.75	3.846666666667
8	7426	4.77	3.863333333333
8	7456	4.79	3.88
8	7486	4.81	3.896666666667
8	7516	4.83	3.913333333333
8	7546	4.85	3.93
8	7576	4.87	3.946666666667
8	7606	4.89	3.963333333333
8	7636	4.91	3.98
8	7666	4.93	3.996666666667
8	7696	4.95	4.013333333333
8	7726	4.97	4.03
8	7756	4.99	4.046666666667
8	7790	5.01	4.063333333333
8	7820	5.03	4.08
8	7850	5.05	4.096666666667
8	7880	5.07	4.113333333333
8	7910	5.09	4.13
8	7940	5.11	4.146666666667
8	7970	5.13	4.163333333333
8	8000	5.15	4.18
8	8030	5.17	4.196666666667
8	8060	5.19	4.213333333333
8	8090	5.21	4.23
8	8120	5.23	4.246666666667
8	8150	5.25	4.263333333333
8	8180	5.27	4.28
8	8210	5.29	4.296666666667
8	8240	5.31	4.313333333333
8	8270	5.33	4.33
8	8300	5.35	4.34666666667
8	8330	5.37	4.36333333333
8	8360	5.39	4.38
8	8390	5.41	4.39666666667
8	8420	5.43	4.41333333333
8	8450	5.45	4.43
8	8480	5.47	4.44666666667
8	8510	5.49	4.46333333333
8	8544	5.51	4.48
8	8574	5.53	4.49666666667
8	8604	5.55	4.51333333333
8	8634	5.57	4.53
8	8664	5.59	4.54666666667
8	8694	5.61	4.56333333333
8	8724	5.63	4.58
8	8754	5.65	4.59666666667
8	8784	5.67	4.61333333333
8	8814	5.69	4.63
8	8844	5.71	4.64666666667
8	8874	5.73	4.66333333333
8	8904	5.75	4.68
8	8934	5.77	4.69666666667
8	8964	5.79	4.71333333333
8	8994	5.81	4.73
8	9024	5.83	4.74666666667
8	9054	5.85	4.76333333333
8	9084	5.87	4.78
8	9114	5.89	4.79666666667
8	9144	5.91	4.81333333333
8	9174	5.93	4.83
8	9204	5.95	4.84666666667
8	9234	5.97	4.86333333333
8	9264	5.99	4.88
8	9298	6.01	4.89666666667
8	9328	6.03	4.91333333333
8	9358	6.05	4.93
8	9388	6.07	4.94666666667
8	9418	6.09	4.96333333333
8	9448	6.11	4.98
8	9478	6.13	4.99666666667
8	9508	6.15	5.01333333333
8	9538	6.17	5.03
8	9568	6.19	5.04666666667
8	9598	6.21	5.06333333333
8	9628	6.23	5.08
8	9658	6.25	5.09666666667
8	9688	6.27	5.11333333333
8	9718	6.29	5.13
8	9748	6.31	5.14666666667
8	9778	6.33	5.16333333333
8	9808	6.35	5.18
8	9838	6.37	5.19666666667
8	9868	6.39	5.21333333333
8	9898	6.41	5.23
8	9928	6.43	5.24666666667
8	9958	6.45	5.26333333333
8	9988	6.47	5.28
8	10018	6.49	5.29666666667
8	10052	6.51	5.31333333333
8	10082	6.53	5.33
8	10112	6.55	5.34666666667
8	10142	6.57	5.36333333333
8	10172	6.59	5.38
8	10202	6.61	5.39666666667
8	10232	6.63	5.41333333333
8	10262	6.65	5.43
8	10292	6.67	5.44666666667
8	10322	6.69	5.46333333333
8	10352	6.71	5.48
8	10382	6.73	5.49666666667
8	10412	6.75	5.51333333333
8	10442	6.77	5.53
8	10472	6.79	5.54666666667
8	10502	6.81	5.56333333333
8	10532	6.83	5.58
8	10562	6.85	5.59666666667
8	10592	6.87	5.61333333333
8	10622	6.89	5.63
8	10652	6.91	5.64666666667
8	10682	6.93	5.66333333333
8	10712	6.95	5.68
8	10742	6.97	5.69666666667
8	10772	6.99	5.71333333333
8	10806	7.01	5.73
8	10836	7.03	5.74666666667
8	10866	7.05	5.76333333333
8	10896	7.07	5.78
8	10926	7.09	5.79666666667
8	10956	7.11	5.81333333333
8	10986	7.13	5.83
8	11016	7.15	5.84666666667
8	11046	7.17	5.86333333333
8	11076	7.19	5.88
8	11106	7.21	5.89666666667
8	11136	7.23	5.91333333333
8	11166	7.25	5.93
8	11196	7.27	5.94666666667
8	11226	7.29	5.96333333333
8	11256	7.31	5.98
8	11286	7.33	5.99666666667
8	11316	7.35	6.01333333333
8	11346	7.37	6.03
8	11376	7.39	6.04666666667
8	11406	7.41	6.06333333333
8	11436	7.43	6.08
8	11466	7.45	6.09666666667
8	11496	7.47	6.11333333333
8	11526	7.49	6.13
8	11560	7.51	6.14666666667
8	11590	7.53	6.16333333333
8	11620	7.55	6.18
8	11650	7.57	6.19666666667
8	11680	7.59	6.21333333333
8	11710	7.61	6.23
8	11740	7.63	6.24666666667
8	11770	7.65	6.26333333333
8	11800	7.67	6.28
8	11830	7.69	6.29666666667
8	11860	7.71	6.31333333333
8	11890	7.73	6.33
8	11920	7.75	6.34666666667
8	11950	7.77	6.36333333333
8	11980	7.79	6.38
8	12010	7.81	6.39666666667
8	12040	7.83	6.41333333333
8	12070	7.85	6.43
8	12100	7.87	6.44666666667
8	12130	7.89	6.46333333333
8	12160	7.91	6.48
8	12190	7.93	6.49666666667
8	12220	7.95	6.51333333333
8	12250	7.97	6.53
8	12280	7.99	6.54666666667
8	12314	8.01	6.56333333333
8	12344	8.03	6.58
8	12374	8.05	6.59666666667
8	12404	8.07	6.61333333333
8	12434	8.09	6.63
8	12464	8.11	6.64666666667
8	12494	8.13	6.66333333333
8	12524	8.15	6.68
8	12554	8.17	6.69666666667
8	12584	8.19	6.71333333333
8	12614	8.21	6.73
8	12644	8.23	6.74666666667
8	12674	8.25	6.76333333333
8	12704	8.27	6.78
8	12734	8.29	6.79666666667
8	12764	8.31	6.81333333333
8	12794	8.33	6.83
8	12824	8.35	6.84666666667
8	12854	8.37	6.86333333333
8	12884	8.39	6.88
8	12914	8.41	6.89666666667
8	12944	8.43	6.91333333333
8	12974	8.45	6.93
8	13004	8.47	6.94666666667
8	13034	8.49	6.96333333333
8	13068	8.51	6.98
8	13098	8.53	6.99666666667
8	13128	8.55	7.01333333333
8	13158	8.57	7.03
8	13188	8.59	7.04666666667
8	13218	8.61	7.06333333333
8	13248	8.63	7.08
8	13278	8.65	7.09666666667
8	13308	8.67	7.11333333333
8	13338	8.69	7.13
8	13368	8.71	7.14666666667
8	13398	8.73	7.16333333333
8	13428	8.75	7.18
8	13458	8.77	7.19666666667
8	13488	8.79	7.21333333333
8	13518	8.81	7.23
8	13548	8.83	7.24666666667
8	13578	8.85	7.26333333333
8	13608	8.87	7.28
8	13638	8.89	7.29666666667
8	13668	8.91	7.31333333333
8	13698	8.93	7.33
8	13728	8.95	7.34666666667
8	13758	8.97	7.36333333333
8	13788	8.99	7.38
8	13822	9.01	7.39666666667
8	13852	9.03	7.41333333333
8	13882	9.05	7.43
8	13912	9.07	7.44666666667
8	13942	9.09	7.46333333333
8	13972	9.11	7.48
8	14002	9.13	7.49666666667
8	14032	9.15	7.51333333333
8	14062	9.17	7.53
8	14092	9.19	7.54666666667
8	14122	9.21	7.56333333333
8	14152	9.23	7.58
8	14182	9.25	7.59666666667
8	14212	9.27	7.61333333333
8	14242	9.29	7.63
8	14272	9.31	7.64666666667
8	14302	9.33	7.66333333333
8	14332	9.35	7.68
8	14362	9.37	7.69666666667
8	14392	9.39	7.71333333333
8	14422	9.41	7.73
8	14452	9.43	7.74666666667
8	14482	9.45	7.76333333333
8	14512	9.47	7.78
8	14542	9.49	7.79666666667
8	14576	9.51	7.81333333333
8	14606	9.53	7.83
8	14636	9.55	7.84666666667
8	14666	9.57	7.86333333333
8	14696	9.59	7.88
8	14726	9.61	7.89666666667
8	14756	9.63	7.91333333333
8	14786	9.65	7.93
8	14816	9.67	7.94666666667
8	14846	9.69	7.96333333333
8	14876	9.71	7.98
8	14906	9.73	7.99666666667
8	14936	9.75	8.01333333333
8	14966	9.77	8.03
8	14996	9.79	8.04666666667
8	15026	9.81	8.06333333333
8	15056	9.83	8.08
8	15086	9.85	8.09666666667
8	15116	9.87	8.11333333333
8	15146	9.89	8.13
8	15176	9.91	8.14666666667
8	15206	9.93	8.16333333333
8	15236	9.95	8.18
8	15266	9.97	8.19666666667
8	15296	9.99	8.21333333333
8	15325	10.01	8.23
8	15346	10.03	8.24666666667
8	15362	10.05	8.26333333333
8	15377	10.07	8.28
8	15391	10.09	8.29666666667
8	15405	10.11	8.31333333333
8	15418	10.13	8.33
8	15429	10.15	8.34666666667
8	15440	10.17	8.36333333333
8	15449	10.19	8.38
8	15456	10.21	8.39666666667
8	15463	10.23	8.41333333333
8	15469	10.25	8.43
8	15474	10.27	8.44666666667
8	15479	10.29	8.46333333333
8	15482	10.31	8.48
9	251	0.18	0.18
9	314	0.2	0.18
9	381	0.22	0.18
9	448	0.24	0.18
9	512	0.26	0.18
9	572	0.28	0.18
9	629	0.3	0.18
9	682	0.32	0.18
9	727	0.34	0.18
9	766	0.36	0.18
9	801	0.38	0.18
9	831	0.4	0.18
9	861	0.42	0.18
9	891	0.44	0.18
9	921	0.46	0.18
9	951	0.48	0.18
9	985	0.5	0.18
9	1015	0.52	0.18
9	1045	0.54	0.18
9	1075	0.56	0.18
9	1105	0.58	0.18
9	1135	0.6	0.18
9	1165	0.62	0.18
9	1195	0.64	0.18
9	1225	0.66	0.18
9	1255	0.68	0.18
9	1285	0.7	0.18
9	1315	0.72	0.18
9	1345	0.74	0.18
9	1375	0.76	0.18
9	1405	0.78	0.18
9	1435	0.8	0.18
9	1465	0.82	0.18
9	1495	0.84	0.18
9	1525	0.86	0.18
9	1555	0.88	0.18
9	1585	0.9	0.18
9	1615	0.92	0.18
9	1645	0.94	0.18
9	1675	0.96	0.18
9	1705	0.98	0.18
9	1739	1	0.18
9	1769	1.02	0.18
9	1799	1.04	0.18
9	1829	1.06	0.18
9	1859	1.08	0.18
9	1889	1.1	0.18
9	1919	1.12	0.18
9	1949	1.14	0.18
9	1979	1.16	0.18
9	2009	1.18	0.18
9	2039	1.2	0.18
9	2069	1.22	0.18
9	2099	1.24	0.18
9	2129	1.26	0.18
9	2159	1.28	0.18
9	2189	1.3	0.18
9	2219	1.32	0.18
9	2249	1.34	0.18
9	2279	1.36	0.18
9	2309	1.38	0.18
9	2339	1.4	0.18
9	2369	1.42	0.18
9	2399	1.44	0.18
9	2429	1.46	0.18
9	2459	1.48	0.18
9	2493	1.5	0.18
9	2523	1.52	0.18
9	2553	1.54	0.18
9	2583	1.56	0.18
9	2613	1.58	0.18
9	2643	1.6	0.18
9	2673	1.62	0.18
9	2703	1.64	0.18
9	2733	1.66	0.18
9	2763	1.68	0.18
9	2793	1.7	0.18
9	2823	1.72	0.18
9	2853	1.74	0.18
9	2883	1.76	0.18
9	2913	1.78	0.18
9	2943	1.8	0.18
9	2973	1.82	0.18
9	3003	1.84	0.18
9	3033	1.86	0.18
9	3063	1.88	0.18
9	3093	1.9	0.18
9	3123	1.92	0.18
9	3153	1.94	0.18
9	3183	1.96	0.18
9	3213	1.98	0.18
9	3247	2	0.18
9	3277	2.02	0.18
9	3307	2.04	0.18
9	3337	2.06	0.18
9	3367	2.08	0.18
9	3397	2.1	0.18
9	3427	2.12	0.18
9	3457	2.14	0.18
9	3487	2.16	0.18
9	3517	2.18	0.18
9	3547	2.2	0.18
9	3577	2.22	0.18
9	3607	2.24	0.18
9	3637	2.26	0.18
9	3667	2.28	0.18
9	3697	2.3	0.18
9	3727	2.32	0.18
9	3757	2.34	0.18
9	3787	2.36	0.18
9	3817	2.38	0.18
9	3847	2.4	0.18
9	3877	2.42	0.18
9	3907	2.44	0.18
9	3937	2.46	0.18
9	3967	2.48	0.18
9	4001	2.5	0.18
9	4031	2.52	0.18
9	4061	2.54	0.18
9	4091	2.56	0.18
9	4121	2.58	0.18
9	4151	2.6	0.18
9	4181	2.62	0.18
9	4211	2.64	0.18
9	4241	2.66	0.18
9	4271	2.68	0.18
9	4301	2.7	0.18
9	4331	2.72	0.18
9	4361	2.74	0.18
9	4391	2.76	0.18
9	4421	2.78	0.18
9	4451	2.8	0.18
9	4481	2.82	0.18
9	4511	2.84	0.18
9	4541	2.86	0.18
9	4571	2.88	0.18
9	4601	2.9	0.18
9	4631	2.92	0.18
9	4661	2.94	0.18
9	4691	2.96	0.18
9	4721	2.98	0.18
9	4755	3	0.18
9	4785	3.02	0.18
9	4815	3.04	0.18
9	4845	3.06	0.18
9	4875	3.08	0.18
9	4905	3.1	0.18
9	4935	3.12	0.18
9	4965	3.14	0.18
9	4995	3.16	0.18
9	5025	3.18	0.18
9	5055	3.2	0.18
9	5085	3.22	0.18
9	5115	3.24	0.18
9	5145	3.26	0.18
9	5175	3.28	0.18
9	5205	3.3	0.18
9	5235	3.32	0.18
9	5265	3.34	0.18
9	5295	3.36	0.18
9	5325	3.38	0.18
9	5355	3.4	0.18
9	5385	3.42	0.18
9	5415	3.44	0.18
9	5445	3.46	0.18
9	5475	3.48	0.18
9	5509	3.5	0.18
9	5539	3.52	0.18
9	5569	3.54	0.18
9	5599	3.56	0.18
9	5629	3.58	0.18
9	5659	3.6	0.18
9	5689	3.62	0.18
9	5719	3.64	0.18
9	5749	3.66	0.18
9	5779	3.68	0.18
9	5809	3.7	0.18
9	5839	3.72	0.18
9	5869	3.74	0.18
9	5899	3.76	0.18
9	5929	3.78	0.18
9	5959	3.8	0.18
9	5989	3.82	0.18
9	6019	3.84	0.18
9	6049	3.86	0.18
9	6079	3.88	0.18
9	6109	3.9	0.18
9	6139	3.92	0.18
9	6169	3.94	0.18
9	6199	3.96	0.18
9	6229	3.98	0.18
9	6263	4	0.18
9	6293	4.02	0.18
9	6323	4.04	0.18
9	6353	4.06	0.18
9	6383	4.08	0.18
9	6413	4.1	0.18
9	6443	4.12	0.18
9	6473	4.14	0.18
9	6503	4.16	0.18
9	6533	4.18	0.18
9	6563	4.2	0.18
9	6593	4.22	0.18
9	6623	4.24	0.18
9	6653	4.26	0.18
9	6683	4.28	0.18
9	6713	4.3	0.18
9	6743	4.32	0.18
9	6773	4.34	0.18
9	6803	4.36	0.18
9	6833	4.38	0.18
9	6863	4.4	0.18
9	6893	4.42	0.18
9	6923	4.44	0.18
9	6953	4.46	0.18
9	6983	4.48	0.18
9	7017	4.5	0.18
9	7047	4.52	0.18
9	7077	4.54	0.18
9	7107	4.56	0.18
9	7137	4.58	0.18
9	7167	4.6	0.18
9	7197	4.62	0.18
9	7227	4.64	0.18
9	7257	4.66	0.18
9	7287	4.68	0.18
9	7317	4.7	0.18
9	7347	4.72	0.18
9	7377	4.74	0.18
9	7407	4.76	0.18
9	7437	4.78	0.18
9	7467	4.8	0.18
9	7497	4.82	0.18
9	7527	4.84	0.18
9	7557	4.86	0.18
9	7587	4.88	0.18
9	7617	4.9	0.18
9	7647	4.92	0.18
9	7677	4.94	0.18
9	7707	4.96	0.18
9	7737	4.98	0.18
9	7771	5	0.18
9	7801	5.02	0.18
9	7831	5.04	0.18
9	7861	5.06	0.18
9	7891	5.08	0.18
9	7921	5.1	0.18
9	7951	5.12	0.18
9	7981	5.14	0.18
9	8011	5.16	0.18
9	8041	5.18	0.18
9	8071	5.2	0.18
9	8101	5.22	0.18
9	8131	5.24	0.18
9	8161	5.26	0.18
9	8191	5.28	0.18
9	8221	5.3	0.18
9	8251	5.32	0.18
9	8281	5.34	0.18
9	8311	5.36	0.18
9	8341	5.38	0.18
9	8371	5.4	0.18
9	8401	5.42	0.18
9	8431	5.44	0.18
9	8461	5.46	0.18
9	8491	5.48	0.18
9	8525	5.5	0.18
9	8555	5.52	0.18
9	8585	5.54	0.18
9	8615	5.56	0.18
9	8645	5.58	0.18
9	8675	5.6	0.18
9	8705	5.62	0.18
9	8735	5.64	0.18
9	8765	5.66	0.18
9	8795	5.68	0.18
9	8825	5.7	0.18
9	8855	5.72	0.18
9	8885	5.74	0.18
9	8915	5.76	0.18
9	8945	5.78	0.18
9	8975	5.8	0.18
9	9005	5.82	0.18
9	9035	5.84	0.18
9	9065	5.86	0.18
9	9095	5.88	0.18
9	9125	5.9	0.18
9	9155	5.92	0.18
9	9185	5.94	0.18
9	9215	5.96	0.18
9	9245	5.98	0.18
9	9279	6	0.18
9	9309	6.02	0.18
9	9339	6.04	0.18
9	9369	6.06	0.18
9	9399	6.08	0.18
9	9429	6.1	0.18
9	9459	6.12	0.18
9	9489	6.14	0.18
9	9519	6.16	0.18
9	9549	6.18	0.18
9	9579	6.2	0.18
9	9609	6.22	0.18
9	9639	6.24	0.18
9	9669	6.26	0.18
9	9699	6.28	0.18
9	9729	6.3	0.18
9	9759	6.32	0.18
9	9789	6.34	0.18
9	9819	6.36	0.18
9	9849	6.38	0.18
9	9879	6.4	0.18
9	9909	6.42	0.18
9	9939	6.44	0.18
9	9969	6.46	0.18
9	9999	6.48	0.18
9	10033	6.5	0.18
9	10063	6.52	0.18
9	10093	6.54	0.18
9	10123	6.56	0.18
9	10153	6.58	0.18
9	10183	6.6	0.18
9	10213	6.62	0.18
9	10243	6.64	0.18
9	10273	6.66	0.18
9	10303	6.68	0.18
9	10333	6.7	0.18
9	10363	6.72	0.18
9	10393	6.74	0.18
9	10423	6.76	0.18
9	10453	6.78	0.18
9	10483	6.8	0.18
9	10513	6.82	0.18
9	10543	6.84	0.18
9	10573	6.86	0.18
9	10603	6.88	0.18
9	10633	6.9	0.18
9	10663	6.92	0.18
9	10693	6.94	0.18
9	10723	6.96	0.18
9	10753	6.98	0.18
9	10787	7	0.18
9	10817	7.02	0.18
9	10847	7.04	0.18
9	10877	7.06	0.18
9	10907	7.08	0.18
9	10937	7.1	0.18
9	10967	7.12	0.18
9	10997	7.14	0.18
9	11027	7.16	0.18
9	11057	7.18	0.18
9	11087	7.2	0.18
9	11117	7.22	0.18
9	11147	7.24	0.18
9	11177	7.26	0.18
9	11207	7.28	0.18
9	11237	7.3	0.18
9	11267	7.32	0.18
9	11297	7.34	0.18
9	11327	7.36	0.18
9	11357	7.38	0.18
9	11387	7.4	0.18
9	11417	7.42	0.18
9	11447	7.44	0.18
9	11477	7.46	0.18
9	11507	7.48	0.18
9	11541	7.5	0.18
9	11571	7.52	0.18
9	11601	7.54	0.18
9	11631	7.56	0.18
9	11661	7.58	0.18
9	11691	7.6	0.18
9	11721	7.62	0.18
9	11751	7.64	0.18
9	11781	7.66	0.18
9	11811	7.68	0.18
9	11841	7.7	0.18
9	11871	7.72	0.18
9	11901	7.74	0.18
9	11931	7.76	0.18
9	11961	7.78	0.18
9	11991	7.8	0.18
9	12021	7.82	0.18
9	12051	7.84	0.18
9	12081	7.86	0.18
9	12111	7.88	0.18
9	12141	7.9	0.18
9	12171	7.92	0.18
9	12201	7.94	0.18
9	12231	7.96	0.18
9	12261	7.98	0.18
9	12295	8	0.18
9	12325	8.02	0.18
9	12355	8.04	0.18
9	12385	8.06	0.18
9	12415	8.08	0.18
9	12445	8.1	0.18
9	12475	8.12	0.18
9	12505	8.14	0.18
9	12535	8.16	0.18
9	12565	8.18	0.18
9	12595	8.2	0.18
9	12625	8.22	0.18
9	12655	8.24	0.18
9	12685	8.26	0.18
9	12715	8.28	0.18
9	12745	8.3	0.18
9	12775	8.32	0.18
9	12805	8.34	0.18
9	12835	8.36	0.18
9	12865	8.38	0.18
9	12895	8.4	0.18
9	12925	8.42	0.18
9	12955	8.44	0.18
9	12985	8.46	0.18
9	13015	8.48	0.18
9	13049	8.5	0.18
9	13079	8.52	0.18
9	13109	8.54	0.18
9	13139	8.56	0.18
9	13169	8.58	0.18
9	13199	8.6	0.18
9	13229	8.62	0.18
9	13259	8.64	0.18
9	13289	8.66	0.18
9	13319	8.68	0.18
9	13349	8.7	0.18
9	13379	8.72	0.18
9	13409	8.74	0.18
9	13439	8.76	0.18
9	13469	8.78	0.18
9	13499	8.8	0.18
9	13529	8.82	0.18
9	13559	8.84	0.18
9	13589	8.86	0.18
9	13619	8.88	0.18
9	13649	8.9	0.18
9	13679	8.92	0.18
9	13709	8.94	0.18
9	13739	8.96	0.18
9	13769	8.98	0.18
9	13803	9	0.18
9	13833	9.02	0.18
9	13863	9.04	0.18
9	13893	9.06	0.18
9	13923	9.08	0.18
9	13953	9.1	0.18
9	13983	9.12	0.18
9	14013	9.14	0.18
9	14043	9.16	0.18
9	14073	9.18	0.18
9	14103	9.2	0.18
9	14133	9.22	0.18
9	14163	9.24	0.18
9	14193	9.26	0.18
9	14223	9.28	0.18
9	14253	9.3	0.18
9	14283	9.32	0.18
9	14313	9.34	0.18
9	14343	9.36	0.18
9	14373	9.38	0.18
9	14403	9.4	0.18
9	14433	9.42	0.18
9	14463	9.44	0.18
9	14493	9.46	0.18
9	14523	9.48	0.18
9	14557	9.5	0.18
9	14587	9.52	0.18
9	14617	9.54	0.18
9	14647	9.56	0.18
9	14677	9.58	0.18
9	14707	9.6	0.18
9	14737	9.62	0.18
9	14767	9.64	0.18
9	14797	9.66	0.18
9	14827	9.68	0.18
9	14857	9.7	0.18
9	14887	9.72	0.18
9	14917	9.74	0.18
9	14947	9.76	0.18
9	14977	9.78	0.18
9	15007	9.8	0.18
9	15037	9.82	0.18
9	15067	9.84	0.18
9	15097	9.86	0.18
9	15127	9.88	0.18
9	15157	9.9	0.18
9	15187	9.92	0.18
9	15217	9.94	0.18
9	15247	9.96	0.18
9	15277	9.98	0.18
9	15309	10	0.18
9	15332	10.02	0.18
9	15350	10.04	0.18
9	15365	10.06	0.18
9	15380	10.08	0.18
9	15394	10.1	0.18
9	15407	10.12	0.18
9	15420	10.14	0.18
9	15431	10.16	0.18

