version 2
run simpleNet-0-20181120-18:53:56-9021
attr configname simpleNet
attr datetime 20181120-18:53:56
attr experiment simpleNet
attr inifile omnetpp.ini
attr iterationvars ""
attr iterationvarsf ""
attr measurement ""
attr network simpleNet
attr processid 9021
attr repetition 0
attr replication #0
attr resultdir results
attr runnumber 0
attr seedset 0

vector 0 simpleNet.node[0] "numInQueuePerChannelSignal(dest node 1):vector" ETV
vector 1 simpleNet.node[0] "numInQueuePerChannelSignal(dest node 3):vector" ETV
vector 2 simpleNet.node[0] "numInQueuePerChannelSignal(dest node 4):vector" ETV
vector 3 simpleNet.node[0] "numProcessedPerChannelSignal(dest node 0):vector" ETV
vector 4 simpleNet.node[0] "numProcessedPerChannelSignal(dest node 1):vector" ETV
vector 5 simpleNet.node[0] "numProcessedPerChannelSignal(dest node 2):vector" ETV
vector 6 simpleNet.node[0] "numProcessedPerChannelSignal(dest node 3):vector" ETV
vector 7 simpleNet.node[0] "numProcessedPerChannelSignal(dest node 4):vector" ETV
vector 8 simpleNet.node[0] numInQueue:vector ETV
attr interpolationmode none
attr source numInQueue
attr title "total num in queue, vector"
vector 9 simpleNet.node[1] "numInQueuePerChannelSignal(dest node 0):vector" ETV
vector 10 simpleNet.node[1] "numInQueuePerChannelSignal(dest node 2):vector" ETV
vector 11 simpleNet.node[1] "numInQueuePerChannelSignal(dest node 3):vector" ETV
vector 12 simpleNet.node[1] "numProcessedPerChannelSignal(dest node 0):vector" ETV
vector 13 simpleNet.node[1] "numProcessedPerChannelSignal(dest node 1):vector" ETV
vector 14 simpleNet.node[1] "numProcessedPerChannelSignal(dest node 2):vector" ETV
vector 15 simpleNet.node[1] "numProcessedPerChannelSignal(dest node 3):vector" ETV
vector 16 simpleNet.node[1] "numProcessedPerChannelSignal(dest node 4):vector" ETV
vector 17 simpleNet.node[1] numInQueue:vector ETV
attr interpolationmode none
attr source numInQueue
attr title "total num in queue, vector"
vector 18 simpleNet.node[2] "numInQueuePerChannelSignal(dest node 1):vector" ETV
vector 19 simpleNet.node[2] "numInQueuePerChannelSignal(dest node 3):vector" ETV
vector 20 simpleNet.node[2] "numInQueuePerChannelSignal(dest node 4):vector" ETV
vector 21 simpleNet.node[2] "numProcessedPerChannelSignal(dest node 0):vector" ETV
vector 22 simpleNet.node[2] "numProcessedPerChannelSignal(dest node 1):vector" ETV
vector 23 simpleNet.node[2] "numProcessedPerChannelSignal(dest node 2):vector" ETV
vector 24 simpleNet.node[2] "numProcessedPerChannelSignal(dest node 3):vector" ETV
vector 25 simpleNet.node[2] "numProcessedPerChannelSignal(dest node 4):vector" ETV
vector 26 simpleNet.node[2] numInQueue:vector ETV
attr interpolationmode none
attr source numInQueue
attr title "total num in queue, vector"
vector 27 simpleNet.node[3] "numInQueuePerChannelSignal(dest node 0):vector" ETV
vector 28 simpleNet.node[3] "numInQueuePerChannelSignal(dest node 1):vector" ETV
vector 29 simpleNet.node[3] "numInQueuePerChannelSignal(dest node 2):vector" ETV
vector 30 simpleNet.node[3] "numProcessedPerChannelSignal(dest node 0):vector" ETV
vector 31 simpleNet.node[3] "numProcessedPerChannelSignal(dest node 1):vector" ETV
vector 32 simpleNet.node[3] "numProcessedPerChannelSignal(dest node 2):vector" ETV
vector 33 simpleNet.node[3] "numProcessedPerChannelSignal(dest node 3):vector" ETV
vector 34 simpleNet.node[3] "numProcessedPerChannelSignal(dest node 4):vector" ETV
vector 35 simpleNet.node[3] numInQueue:vector ETV
attr interpolationmode none
attr source numInQueue
attr title "total num in queue, vector"
vector 36 simpleNet.node[4] "numInQueuePerChannelSignal(dest node 0):vector" ETV
vector 37 simpleNet.node[4] "numInQueuePerChannelSignal(dest node 2):vector" ETV
vector 38 simpleNet.node[4] "numProcessedPerChannelSignal(dest node 0):vector" ETV
vector 39 simpleNet.node[4] "numProcessedPerChannelSignal(dest node 1):vector" ETV
vector 40 simpleNet.node[4] "numProcessedPerChannelSignal(dest node 2):vector" ETV
vector 41 simpleNet.node[4] "numProcessedPerChannelSignal(dest node 3):vector" ETV
vector 42 simpleNet.node[4] "numProcessedPerChannelSignal(dest node 4):vector" ETV
vector 43 simpleNet.node[4] numInQueue:vector ETV
attr interpolationmode none
attr source numInQueue
attr title "total num in queue, vector"
vector 44 simpleNet.node[0] completionTime:vector ETV
attr interpolationmode none
attr source completionTime
attr title "completionTime, vector"
vector 45 simpleNet.node[1] completionTime:vector ETV
attr interpolationmode none
attr source completionTime
attr title "completionTime, vector"
vector 46 simpleNet.node[2] completionTime:vector ETV
attr interpolationmode none
attr source completionTime
attr title "completionTime, vector"
vector 47 simpleNet.node[3] completionTime:vector ETV
attr interpolationmode none
attr source completionTime
attr title "completionTime, vector"
vector 48 simpleNet.node[4] completionTime:vector ETV
attr interpolationmode none
attr source completionTime
attr title "completionTime, vector"
0	3	0	0
0	43	0.5	0
0	71	1	0
0	105	1.5	0
0	133	2	0
0	167	2.5	0
0	195	3	0
0	229	3.5	0
0	257	4	0
0	291	4.5	0
0	319	5	0
0	353	5.5	0
0	381	6	0
0	415	6.5	0
0	443	7	0
0	477	7.5	0
0	505	8	0
0	539	8.5	0
0	567	9	0
0	601	9.5	0
0	621	10	0
0	626	10.5	0
1	3	0	0
1	43	0.5	0
1	71	1	0
1	105	1.5	0
1	133	2	0
1	167	2.5	0
1	195	3	0
1	229	3.5	0
1	257	4	0
1	291	4.5	0
1	319	5	0
1	353	5.5	0
1	381	6	0
1	415	6.5	0
1	443	7	0
1	477	7.5	0
1	505	8	0
1	539	8.5	0
1	567	9	0
1	601	9.5	0
1	621	10	0
1	626	10.5	0
2	3	0	0
2	43	0.5	0
2	71	1	0
2	105	1.5	0
2	133	2	0
2	167	2.5	0
2	195	3	0
2	229	3.5	0
2	257	4	0
2	291	4.5	0
2	319	5	0
2	353	5.5	0
2	381	6	0
2	415	6.5	0
2	443	7	0
2	477	7.5	0
2	505	8	0
2	539	8.5	0
2	567	9	0
2	601	9.5	0
2	621	10	0
2	626	10.5	0
3	3	0	0
3	43	0.5	0
3	71	1	0
3	105	1.5	0
3	133	2	0
3	167	2.5	0
3	195	3	0
3	229	3.5	0
3	257	4	0
3	291	4.5	0
3	319	5	0
3	353	5.5	0
3	381	6	0
3	415	6.5	0
3	443	7	0
3	477	7.5	0
3	505	8	0
3	539	8.5	0
3	567	9	0
3	601	9.5	0
3	621	10	0
3	626	10.5	0
4	3	0	0
4	43	0.5	1
4	71	1	0
4	105	1.5	1
4	133	2	0
4	167	2.5	1
4	195	3	0
4	229	3.5	1
4	257	4	0
4	291	4.5	1
4	319	5	0
4	353	5.5	1
4	381	6	0
4	415	6.5	1
4	443	7	0
4	477	7.5	1
4	505	8	0
4	539	8.5	1
4	567	9	0
4	601	9.5	1
4	621	10	0
4	626	10.5	0
5	3	0	0
5	43	0.5	0
5	71	1	0
5	105	1.5	0
5	133	2	0
5	167	2.5	0
5	195	3	0
5	229	3.5	0
5	257	4	0
5	291	4.5	0
5	319	5	0
5	353	5.5	0
5	381	6	0
5	415	6.5	0
5	443	7	0
5	477	7.5	0
5	505	8	0
5	539	8.5	0
5	567	9	0
5	601	9.5	0
5	621	10	0
5	626	10.5	0
6	3	0	0
6	43	0.5	1
6	71	1	1
6	105	1.5	1
6	133	2	1
6	167	2.5	1
6	195	3	1
6	229	3.5	1
6	257	4	1
6	291	4.5	1
6	319	5	1
6	353	5.5	1
6	381	6	1
6	415	6.5	1
6	443	7	1
6	477	7.5	1
6	505	8	1
6	539	8.5	1
6	567	9	1
6	601	9.5	1
6	621	10	1
6	626	10.5	0
7	3	0	0
7	43	0.5	1
7	71	1	0
7	105	1.5	1
7	133	2	0
7	167	2.5	1
7	195	3	0
7	229	3.5	1
7	257	4	0
7	291	4.5	1
7	319	5	0
7	353	5.5	1
7	381	6	0
7	415	6.5	1
7	443	7	0
7	477	7.5	1
7	505	8	0
7	539	8.5	1
7	567	9	0
7	601	9.5	1
7	621	10	0
7	626	10.5	0
8	3	0	0
8	43	0.5	0
8	71	1	0
8	105	1.5	0
8	133	2	0
8	167	2.5	0
8	195	3	0
8	229	3.5	0
8	257	4	0
8	291	4.5	0
8	319	5	0
8	353	5.5	0
8	381	6	0
8	415	6.5	0
8	443	7	0
8	477	7.5	0
8	505	8	0
8	539	8.5	0
8	567	9	0
8	601	9.5	0
8	621	10	0
8	626	10.5	0
9	5	0	0
9	44	0.5	0
9	72	1	0
9	106	1.5	0
9	134	2	0
9	168	2.5	0
9	196	3	0
9	230	3.5	0
9	258	4	0
9	292	4.5	0
9	320	5	0
9	354	5.5	0
9	382	6	0
9	416	6.5	0
9	444	7	0
9	478	7.5	0
9	506	8	0
9	540	8.5	0
9	568	9	0
9	602	9.5	0
9	622	10	0
9	627	10.5	0
10	5	0	0
10	44	0.5	0
10	72	1	0
10	106	1.5	0
10	134	2	0
10	168	2.5	0
10	196	3	0
10	230	3.5	0
10	258	4	0
10	292	4.5	0
10	320	5	0
10	354	5.5	0
10	382	6	0
10	416	6.5	0
10	444	7	0
10	478	7.5	0
10	506	8	0
10	540	8.5	0
10	568	9	0
10	602	9.5	0
10	622	10	0
10	627	10.5	0
11	5	0	0
11	44	0.5	0
11	72	1	0
11	106	1.5	0
11	134	2	0
11	168	2.5	0
11	196	3	0
11	230	3.5	0
11	258	4	0
11	292	4.5	0
11	320	5	0
11	354	5.5	0
11	382	6	0
11	416	6.5	0
11	444	7	0
11	478	7.5	0
11	506	8	0
11	540	8.5	0
11	568	9	0
11	602	9.5	0
11	622	10	0
11	627	10.5	0
12	5	0	0
12	44	0.5	1
12	72	1	0
12	106	1.5	1
12	134	2	0
12	168	2.5	1
12	196	3	0
12	230	3.5	1
12	258	4	0
12	292	4.5	1
12	320	5	0
12	354	5.5	1
12	382	6	0
12	416	6.5	1
12	444	7	0
12	478	7.5	1
12	506	8	0
12	540	8.5	1
12	568	9	0
12	602	9.5	1
12	622	10	0
12	627	10.5	0
13	5	0	0
13	44	0.5	0
13	72	1	0
13	106	1.5	0
13	134	2	0
13	168	2.5	0
13	196	3	0
13	230	3.5	0
13	258	4	0
13	292	4.5	0
13	320	5	0
13	354	5.5	0
13	382	6	0
13	416	6.5	0
13	444	7	0
13	478	7.5	0
13	506	8	0
13	540	8.5	0
13	568	9	0
13	602	9.5	0
13	622	10	0
13	627	10.5	0
14	5	0	0
14	44	0.5	1
14	72	1	0
14	106	1.5	1
14	134	2	0
14	168	2.5	1
14	196	3	0
14	230	3.5	1
14	258	4	0
14	292	4.5	1
14	320	5	0
14	354	5.5	1
14	382	6	0
14	416	6.5	1
14	444	7	0
14	478	7.5	1
14	506	8	0
14	540	8.5	1
14	568	9	0
14	602	9.5	1
14	622	10	0
14	627	10.5	0
15	5	0	0
15	44	0.5	1
15	72	1	1
15	106	1.5	1
15	134	2	1
15	168	2.5	1
15	196	3	1
15	230	3.5	1
15	258	4	1
15	292	4.5	1
15	320	5	1
15	354	5.5	1
15	382	6	1
15	416	6.5	1
15	444	7	1
15	478	7.5	1
15	506	8	1
15	540	8.5	1
15	568	9	1
15	602	9.5	1
15	622	10	1
15	627	10.5	0
16	5	0	0
16	44	0.5	0
16	72	1	0
16	106	1.5	0
16	134	2	0
16	168	2.5	0
16	196	3	0
16	230	3.5	0
16	258	4	0
16	292	4.5	0
16	320	5	0
16	354	5.5	0
16	382	6	0
16	416	6.5	0
16	444	7	0
16	478	7.5	0
16	506	8	0
16	540	8.5	0
16	568	9	0
16	602	9.5	0
16	622	10	0
16	627	10.5	0
17	5	0	0
17	44	0.5	0
17	72	1	0
17	106	1.5	0
17	134	2	0
17	168	2.5	0
17	196	3	0
17	230	3.5	0
17	258	4	0
17	292	4.5	0
17	320	5	0
17	354	5.5	0
17	382	6	0
17	416	6.5	0
17	444	7	0
17	478	7.5	0
17	506	8	0
17	540	8.5	0
17	568	9	0
17	602	9.5	0
17	622	10	0
17	627	10.5	0
18	8	0	0
18	45	0.5	0
18	73	1	0
18	107	1.5	0
18	135	2	0
18	169	2.5	0
18	197	3	0
18	231	3.5	0
18	259	4	0
18	293	4.5	0
18	321	5	0
18	355	5.5	0
18	383	6	0
18	417	6.5	0
18	445	7	0
18	479	7.5	0
18	507	8	0
18	541	8.5	0
18	569	9	0
18	603	9.5	0
18	623	10	0
18	628	10.5	0
19	8	0	0
19	45	0.5	0
19	73	1	0
19	107	1.5	0
19	135	2	0
19	169	2.5	0
19	197	3	0
19	231	3.5	0
19	259	4	0
19	293	4.5	0
19	321	5	0
19	355	5.5	0
19	383	6	0
19	417	6.5	0
19	445	7	0
19	479	7.5	0
19	507	8	0
19	541	8.5	0
19	569	9	0
19	603	9.5	0
19	623	10	0
19	628	10.5	0
20	8	0	0
20	45	0.5	0
20	73	1	0
20	107	1.5	0
20	135	2	0
20	169	2.5	0
20	197	3	0
20	231	3.5	0
20	259	4	0
20	293	4.5	0
20	321	5	0
20	355	5.5	0
20	383	6	0
20	417	6.5	0
20	445	7	0
20	479	7.5	0
20	507	8	0
20	541	8.5	0
20	569	9	0
20	603	9.5	0
20	623	10	0
20	628	10.5	0
21	8	0	0
21	45	0.5	0
21	73	1	0
21	107	1.5	0
21	135	2	0
21	169	2.5	0
21	197	3	0
21	231	3.5	0
21	259	4	0
21	293	4.5	0
21	321	5	0
21	355	5.5	0
21	383	6	0
21	417	6.5	0
21	445	7	0
21	479	7.5	0
21	507	8	0
21	541	8.5	0
21	569	9	0
21	603	9.5	0
21	623	10	0
21	628	10.5	0
22	8	0	0
22	45	0.5	1
22	73	1	0
22	107	1.5	1
22	135	2	0
22	169	2.5	1
22	197	3	0
22	231	3.5	1
22	259	4	0
22	293	4.5	1
22	321	5	0
22	355	5.5	1
22	383	6	0
22	417	6.5	1
22	445	7	0
22	479	7.5	1
22	507	8	0
22	541	8.5	1
22	569	9	0
22	603	9.5	1
22	623	10	0
22	628	10.5	0
23	8	0	0
23	45	0.5	0
23	73	1	0
23	107	1.5	0
23	135	2	0
23	169	2.5	0
23	197	3	0
23	231	3.5	0
23	259	4	0
23	293	4.5	0
23	321	5	0
23	355	5.5	0
23	383	6	0
23	417	6.5	0
23	445	7	0
23	479	7.5	0
23	507	8	0
23	541	8.5	0
23	569	9	0
23	603	9.5	0
23	623	10	0
23	628	10.5	0
24	8	0	0
24	45	0.5	1
24	73	1	1
24	107	1.5	1
24	135	2	1
24	169	2.5	1
24	197	3	1
24	231	3.5	1
24	259	4	1
24	293	4.5	1
24	321	5	1
24	355	5.5	1
24	383	6	1
24	417	6.5	1
24	445	7	1
24	479	7.5	1
24	507	8	1
24	541	8.5	1
24	569	9	1
24	603	9.5	1
24	623	10	1
24	628	10.5	0
25	8	0	0
25	45	0.5	2
25	73	1	2
25	107	1.5	2
25	135	2	2
25	169	2.5	2
25	197	3	2
25	231	3.5	2
25	259	4	2
25	293	4.5	2
25	321	5	2
25	355	5.5	2
25	383	6	2
25	417	6.5	2
25	445	7	2
25	479	7.5	2
25	507	8	2
25	541	8.5	2
25	569	9	2
25	603	9.5	2
25	623	10	2
25	628	10.5	0
26	8	0	0
26	45	0.5	0
26	73	1	0
26	107	1.5	0
26	135	2	0
26	169	2.5	0
26	197	3	0
26	231	3.5	0
26	259	4	0
26	293	4.5	0
26	321	5	0
26	355	5.5	0
26	383	6	0
26	417	6.5	0
26	445	7	0
26	479	7.5	0
26	507	8	0
26	541	8.5	0
26	569	9	0
26	603	9.5	0
26	623	10	0
26	628	10.5	0
27	11	0	0
27	46	0.5	0
27	74	1	0
27	108	1.5	0
27	136	2	0
27	170	2.5	0
27	198	3	0
27	232	3.5	0
27	260	4	0
27	294	4.5	0
27	322	5	0
27	356	5.5	0
27	384	6	0
27	418	6.5	0
27	446	7	0
27	480	7.5	0
27	508	8	0
27	542	8.5	0
27	570	9	0
27	604	9.5	0
27	624	10	0
27	629	10.5	0
28	11	0	0
28	46	0.5	0
28	74	1	0
28	108	1.5	0
28	136	2	0
28	170	2.5	0
28	198	3	0
28	232	3.5	0
28	260	4	0
28	294	4.5	0
28	322	5	0
28	356	5.5	0
28	384	6	0
28	418	6.5	0
28	446	7	0
28	480	7.5	0
28	508	8	0
28	542	8.5	0
28	570	9	0
28	604	9.5	0
28	624	10	0
28	629	10.5	0
29	11	0	0
29	46	0.5	0
29	74	1	0
29	108	1.5	0
29	136	2	0
29	170	2.5	0
29	198	3	0
29	232	3.5	0
29	260	4	0
29	294	4.5	0
29	322	5	0
29	356	5.5	0
29	384	6	0
29	418	6.5	0
29	446	7	0
29	480	7.5	0
29	508	8	0
29	542	8.5	0
29	570	9	0
29	604	9.5	0
29	624	10	0
29	629	10.5	0
30	11	0	0
30	46	0.5	1
30	74	1	1
30	108	1.5	1
30	136	2	1
30	170	2.5	1
30	198	3	1
30	232	3.5	1
30	260	4	1
30	294	4.5	1
30	322	5	1
30	356	5.5	1
30	384	6	1
30	418	6.5	1
30	446	7	1
30	480	7.5	1
30	508	8	1
30	542	8.5	1
30	570	9	1
30	604	9.5	1
30	624	10	1
30	629	10.5	0
31	11	0	0
31	46	0.5	1
31	74	1	1
31	108	1.5	1
31	136	2	1
31	170	2.5	1
31	198	3	1
31	232	3.5	1
31	260	4	1
31	294	4.5	1
31	322	5	1
31	356	5.5	1
31	384	6	1
31	418	6.5	1
31	446	7	1
31	480	7.5	1
31	508	8	1
31	542	8.5	1
31	570	9	1
31	604	9.5	1
31	624	10	1
31	629	10.5	0
32	11	0	0
32	46	0.5	1
32	74	1	1
32	108	1.5	1
32	136	2	1
32	170	2.5	1
32	198	3	1
32	232	3.5	1
32	260	4	1
32	294	4.5	1
32	322	5	1
32	356	5.5	1
32	384	6	1
32	418	6.5	1
32	446	7	1
32	480	7.5	1
32	508	8	1
32	542	8.5	1
32	570	9	1
32	604	9.5	1
32	624	10	1
32	629	10.5	0
33	11	0	0
33	46	0.5	0
33	74	1	0
33	108	1.5	0
33	136	2	0
33	170	2.5	0
33	198	3	0
33	232	3.5	0
33	260	4	0
33	294	4.5	0
33	322	5	0
33	356	5.5	0
33	384	6	0
33	418	6.5	0
33	446	7	0
33	480	7.5	0
33	508	8	0
33	542	8.5	0
33	570	9	0
33	604	9.5	0
33	624	10	0
33	629	10.5	0
34	11	0	0
34	46	0.5	0
34	74	1	0
34	108	1.5	0
34	136	2	0
34	170	2.5	0
34	198	3	0
34	232	3.5	0
34	260	4	0
34	294	4.5	0
34	322	5	0
34	356	5.5	0
34	384	6	0
34	418	6.5	0
34	446	7	0
34	480	7.5	0
34	508	8	0
34	542	8.5	0
34	570	9	0
34	604	9.5	0
34	624	10	0
34	629	10.5	0
35	11	0	0
35	46	0.5	0
35	74	1	0
35	108	1.5	0
35	136	2	0
35	170	2.5	0
35	198	3	0
35	232	3.5	0
35	260	4	0
35	294	4.5	0
35	322	5	0
35	356	5.5	0
35	384	6	0
35	418	6.5	0
35	446	7	0
35	480	7.5	0
35	508	8	0
35	542	8.5	0
35	570	9	0
35	604	9.5	0
35	624	10	0
35	629	10.5	0
36	13	0	0
36	47	0.5	0
36	75	1	0
36	109	1.5	0
36	137	2	0
36	171	2.5	0
36	199	3	0
36	233	3.5	0
36	261	4	0
36	295	4.5	0
36	323	5	0
36	357	5.5	0
36	385	6	0
36	419	6.5	0
36	447	7	0
36	481	7.5	0
36	509	8	0
36	543	8.5	0
36	571	9	0
36	605	9.5	0
36	625	10	0
36	630	10.5	0
37	13	0	0
37	47	0.5	0
37	75	1	0
37	109	1.5	0
37	137	2	0
37	171	2.5	0
37	199	3	0
37	233	3.5	0
37	261	4	0
37	295	4.5	0
37	323	5	0
37	357	5.5	0
37	385	6	0
37	419	6.5	0
37	447	7	0
37	481	7.5	0
37	509	8	0
37	543	8.5	0
37	571	9	0
37	605	9.5	0
37	625	10	0
37	630	10.5	0
38	13	0	0
38	47	0.5	1
38	75	1	0
38	109	1.5	1
38	137	2	0
38	171	2.5	1
38	199	3	0
38	233	3.5	1
38	261	4	0
38	295	4.5	1
38	323	5	0
38	357	5.5	1
38	385	6	0
38	419	6.5	1
38	447	7	0
38	481	7.5	1
38	509	8	0
38	543	8.5	1
38	571	9	0
38	605	9.5	1
38	625	10	0
38	630	10.5	0
39	13	0	0
39	47	0.5	0
39	75	1	0
39	109	1.5	0
39	137	2	0
39	171	2.5	0
39	199	3	0
39	233	3.5	0
39	261	4	0
39	295	4.5	0
39	323	5	0
39	357	5.5	0
39	385	6	0
39	419	6.5	0
39	447	7	0
39	481	7.5	0
39	509	8	0
39	543	8.5	0
39	571	9	0
39	605	9.5	0
39	625	10	0
39	630	10.5	0
40	13	0	0
40	47	0.5	2
40	75	1	2
40	109	1.5	2
40	137	2	2
40	171	2.5	2
40	199	3	2
40	233	3.5	2
40	261	4	2
40	295	4.5	2
40	323	5	2
40	357	5.5	2
40	385	6	2
40	419	6.5	2
40	447	7	2
40	481	7.5	2
40	509	8	2
40	543	8.5	2
40	571	9	2
40	605	9.5	2
40	625	10	2
40	630	10.5	0
41	13	0	0
41	47	0.5	0
41	75	1	0
41	109	1.5	0
41	137	2	0
41	171	2.5	0
41	199	3	0
41	233	3.5	0
41	261	4	0
41	295	4.5	0
41	323	5	0
41	357	5.5	0
41	385	6	0
41	419	6.5	0
41	447	7	0
41	481	7.5	0
41	509	8	0
41	543	8.5	0
41	571	9	0
41	605	9.5	0
41	625	10	0
41	630	10.5	0
42	13	0	0
42	47	0.5	0
42	75	1	0
42	109	1.5	0
42	137	2	0
42	171	2.5	0
42	199	3	0
42	233	3.5	0
42	261	4	0
42	295	4.5	0
42	323	5	0
42	357	5.5	0
42	385	6	0
42	419	6.5	0
42	447	7	0
42	481	7.5	0
42	509	8	0
42	543	8.5	0
42	571	9	0
42	605	9.5	0
42	625	10	0
42	630	10.5	0
43	13	0	0
43	47	0.5	0
43	75	1	0
43	109	1.5	0
43	137	2	0
43	171	2.5	0
43	199	3	0
43	233	3.5	0
43	261	4	0
43	295	4.5	0
43	323	5	0
43	357	5.5	0
43	385	6	0
43	419	6.5	0
43	447	7	0
43	481	7.5	0
43	509	8	0
43	543	8.5	0
43	571	9	0
43	605	9.5	0
43	625	10	0
43	630	10.5	0
44	22	0.06	60
44	23	0.06	60
44	84	1.06	60
44	85	1.06	60
44	146	2.06	60
44	147	2.06	60
44	208	3.06	60
44	209	3.06	60
44	270	4.06	60
44	271	4.06	60
44	332	5.06	60
44	333	5.06	60
44	394	6.06	60
44	395	6.06	60
44	456	7.06	60
44	457	7.06	60
44	518	8.06	60
44	519	8.06	60
44	580	9.06	60
44	581	9.06	60
45	24	0.06	60
45	53	0.56	60
45	86	1.06	60
45	115	1.56	60
45	148	2.06	60
45	177	2.56	60
45	210	3.06	60
45	239	3.56	60
45	272	4.06	60
45	301	4.56	60
45	334	5.06	60
45	363	5.56	60
45	396	6.06	60
45	425	6.56	60
45	458	7.06	60
45	487	7.56	60
45	520	8.06	60
45	549	8.56	60
45	582	9.06	60
45	611	9.56	60
46	25	0.06	60
46	26	0.06	60
46	54	0.56	60
46	87	1.06	60
46	88	1.06	60
46	116	1.56	60
46	149	2.06	60
46	150	2.06	60
46	178	2.56	60
46	211	3.06	60
46	212	3.06	60
46	240	3.56	60
46	273	4.06	60
46	274	4.06	60
46	302	4.56	60
46	335	5.06	60
46	336	5.06	60
46	364	5.56	60
46	397	6.06	60
46	398	6.06	60
46	426	6.56	60
46	459	7.06	60
46	460	7.06	60
46	488	7.56	60
46	521	8.06	60
46	522	8.06	60
46	550	8.56	60
46	583	9.06	60
46	584	9.06	60
46	612	9.56	60
47	27	0.06	60
47	28	0.06	60
47	55	0.56	60
47	56	0.56	60
47	89	1.06	60
47	90	1.06	60
47	117	1.56	60
47	118	1.56	60
47	151	2.06	60
47	152	2.06	60
47	179	2.56	60
47	180	2.56	60
47	213	3.06	60
47	214	3.06	60
47	241	3.56	60
47	242	3.56	60
47	275	4.06	60
47	276	4.06	60
47	303	4.56	60
47	304	4.56	60
47	337	5.06	60
47	338	5.06	60
47	365	5.56	60
47	366	5.56	60
47	399	6.06	60
47	400	6.06	60
47	427	6.56	60
47	428	6.56	60
47	461	7.06	60
47	462	7.06	60
47	489	7.56	60
47	490	7.56	60
47	523	8.06	60
47	524	8.06	60
47	551	8.56	60
47	552	8.56	60
47	585	9.06	60
47	586	9.06	60
47	613	9.56	60
47	614	9.56	60
48	29	0.06	60
48	57	0.56	60
48	91	1.06	60
48	119	1.56	60
48	153	2.06	60
48	181	2.56	60
48	215	3.06	60
48	243	3.56	60
48	277	4.06	60
48	305	4.56	60
48	339	5.06	60
48	367	5.56	60
48	401	6.06	60
48	429	6.56	60
48	463	7.06	60
48	491	7.56	60
48	525	8.06	60
48	553	8.56	60
48	587	9.06	60
48	615	9.56	60

