file 11746 1542757027                                           
version 2
run simpleNet-0-20181120-14:11:16-7896
attr configname simpleNet
attr datetime 20181120-14:11:16
attr experiment simpleNet
attr inifile omnetpp.ini
attr iterationvars ""
attr iterationvarsf ""
attr measurement ""
attr network simpleNet
attr processid 7896
attr repetition 0
attr replication #0
attr resultdir results
attr runnumber 0
attr seedset 0

vector 0 simpleNet.node[0] "numInQueuePerChannelSignal(dest node 1):vector" ETV
0	3739 240 3 626 0 10.5 22 0 0 0 0
vector 1 simpleNet.node[0] "numInQueuePerChannelSignal(dest node 3):vector" ETV
1	3979 240 3 626 0 10.5 22 0 0 0 0
vector 2 simpleNet.node[0] "numInQueuePerChannelSignal(dest node 4):vector" ETV
2	4219 240 3 626 0 10.5 22 0 0 0 0
vector 3 simpleNet.node[0] numInQueue:vector ETV
attr interpolationmode none
attr source numInQueue
attr title "total num in queue, vector"
3	4459 240 3 626 0 10.5 22 0 0 0 0
vector 4 simpleNet.node[0] numProcessed:vector ETV
attr interpolationmode none
attr source numProcessed
attr title "num processing events in statRate time, vector"
4	4699 240 3 626 0 10.5 22 0 3 40 100
vector 5 simpleNet.node[1] "numInQueuePerChannelSignal(dest node 0):vector" ETV
5	4939 240 5 627 0 10.5 22 0 0 0 0
vector 6 simpleNet.node[1] "numInQueuePerChannelSignal(dest node 2):vector" ETV
6	5179 240 5 627 0 10.5 22 0 0 0 0
vector 7 simpleNet.node[1] "numInQueuePerChannelSignal(dest node 3):vector" ETV
7	5419 240 5 627 0 10.5 22 0 0 0 0
vector 8 simpleNet.node[1] numInQueue:vector ETV
attr interpolationmode none
attr source numInQueue
attr title "total num in queue, vector"
8	5659 240 5 627 0 10.5 22 0 0 0 0
vector 9 simpleNet.node[1] numProcessed:vector ETV
attr interpolationmode none
attr source numProcessed
attr title "num processing events in statRate time, vector"
9	5899 240 5 627 0 10.5 22 0 3 40 100
vector 10 simpleNet.node[2] "numInQueuePerChannelSignal(dest node 1):vector" ETV
10	6139 262 8 628 0 10.5 22 0 0 0 0
vector 11 simpleNet.node[2] "numInQueuePerChannelSignal(dest node 3):vector" ETV
11	6401 262 8 628 0 10.5 22 0 0 0 0
vector 12 simpleNet.node[2] "numInQueuePerChannelSignal(dest node 4):vector" ETV
12	6663 262 8 628 0 10.5 22 0 0 0 0
vector 13 simpleNet.node[2] numInQueue:vector ETV
attr interpolationmode none
attr source numInQueue
attr title "total num in queue, vector"
13	6925 262 8 628 0 10.5 22 0 0 0 0
vector 14 simpleNet.node[2] numProcessed:vector ETV
attr interpolationmode none
attr source numProcessed
attr title "num processing events in statRate time, vector"
14	7187 262 8 628 0 10.5 22 0 4 70 250
vector 15 simpleNet.node[3] "numInQueuePerChannelSignal(dest node 0):vector" ETV
15	7449 263 11 629 0 10.5 22 0 0 0 0
vector 16 simpleNet.node[3] "numInQueuePerChannelSignal(dest node 1):vector" ETV
16	7712 263 11 629 0 10.5 22 0 0 0 0
vector 17 simpleNet.node[3] "numInQueuePerChannelSignal(dest node 2):vector" ETV
17	7975 263 11 629 0 10.5 22 0 0 0 0
vector 18 simpleNet.node[3] numInQueue:vector ETV
attr interpolationmode none
attr source numInQueue
attr title "total num in queue, vector"
18	8238 263 11 629 0 10.5 22 0 0 0 0
vector 19 simpleNet.node[3] numProcessed:vector ETV
attr interpolationmode none
attr source numProcessed
attr title "num processing events in statRate time, vector"
19	8501 263 11 629 0 10.5 22 0 3 60 180
vector 20 simpleNet.node[4] "numInQueuePerChannelSignal(dest node 0):vector" ETV
20	8764 263 13 630 0 10.5 22 0 0 0 0
vector 21 simpleNet.node[4] "numInQueuePerChannelSignal(dest node 2):vector" ETV
21	9027 263 13 630 0 10.5 22 0 0 0 0
vector 22 simpleNet.node[4] numInQueue:vector ETV
attr interpolationmode none
attr source numInQueue
attr title "total num in queue, vector"
22	9290 263 13 630 0 10.5 22 0 0 0 0
vector 23 simpleNet.node[4] numProcessed:vector ETV
attr interpolationmode none
attr source numProcessed
attr title "num processing events in statRate time, vector"
23	9553 263 13 630 0 10.5 22 0 3 50 130
vector 24 simpleNet.node[0] completionTime:vector ETV
attr interpolationmode none
attr source completionTime
attr title "completionTime, vector"
24	9816 296 22 581 0.06 9.06 20 60 60 1200 72000
vector 25 simpleNet.node[1] completionTime:vector ETV
attr interpolationmode none
attr source completionTime
attr title "completionTime, vector"
25	10112 297 24 611 0.06 9.56 20 60 60 1200 72000
vector 26 simpleNet.node[2] completionTime:vector ETV
attr interpolationmode none
attr source completionTime
attr title "completionTime, vector"
26	10409 445 25 612 0.06 9.56 30 60 60 1800 108000
vector 27 simpleNet.node[3] completionTime:vector ETV
attr interpolationmode none
attr source completionTime
attr title "completionTime, vector"
27	10854 594 27 614 0.06 9.56 40 60 60 2400 144000
vector 28 simpleNet.node[4] completionTime:vector ETV
attr interpolationmode none
attr source completionTime
attr title "completionTime, vector"
28	11448 298 29 615 0.06 9.56 20 60 60 1200 72000
