version 2
run simpleNet-0-20181107-05:09:52-31163
attr configname simpleNet
attr datetime 20181107-05:09:52
attr experiment simpleNet
attr inifile omnetpp.ini
attr iterationvars ""
attr iterationvarsf ""
attr measurement ""
attr network simpleNet
attr processid 31163
attr repetition 0
attr replication #0
attr resultdir results
attr runnumber 0
attr seedset 0

vector 0 simpleNet.node[0] numInQueue:vector ETV
attr interpolationmode none
attr source numInQueue
attr title "total num in queue, vector"
vector 1 simpleNet.node[0] numProcessed:vector ETV
attr interpolationmode none
attr source numProcessed
attr title "num processed in statRate time, vector"
vector 2 simpleNet.node[1] numInQueue:vector ETV
attr interpolationmode none
attr source numInQueue
attr title "total num in queue, vector"
vector 3 simpleNet.node[1] numProcessed:vector ETV
attr interpolationmode none
attr source numProcessed
attr title "num processed in statRate time, vector"
vector 4 simpleNet.node[2] numInQueue:vector ETV
attr interpolationmode none
attr source numInQueue
attr title "total num in queue, vector"
vector 5 simpleNet.node[2] numProcessed:vector ETV
attr interpolationmode none
attr source numProcessed
attr title "num processed in statRate time, vector"
vector 6 simpleNet.node[3] numInQueue:vector ETV
attr interpolationmode none
attr source numInQueue
attr title "total num in queue, vector"
vector 7 simpleNet.node[3] numProcessed:vector ETV
attr interpolationmode none
attr source numProcessed
attr title "num processed in statRate time, vector"
vector 8 simpleNet.node[0] completionTime:vector ETV
attr interpolationmode none
attr source completionTime
attr title "completionTime, vector"
vector 9 simpleNet.node[3] completionTime:vector ETV
attr interpolationmode none
attr source completionTime
attr title "completionTime, vector"
0	2	0	0
0	107	0.5	0
0	231	1	0
0	355	1.5	0
0	479	2	0
0	603	2.5	0
0	727	3	0
0	851	3.5	0
0	975	4	0
0	1099	4.5	0
0	1223	5	0
0	1347	5.5	0
0	1471	6	0
0	1595	6.5	0
0	1719	7	0
0	1843	7.5	0
0	1967	8	0
0	2091	8.5	0
0	2215	9	0
0	2339	9.5	0
0	2461	10	0
0	2485	10.5	0
1	2	0	0
1	107	0.5	9
1	231	1	12
1	355	1.5	12
1	479	2	12
1	603	2.5	12
1	727	3	12
1	851	3.5	12
1	975	4	12
1	1099	4.5	12
1	1223	5	12
1	1347	5.5	12
1	1471	6	12
1	1595	6.5	12
1	1719	7	12
1	1843	7.5	12
1	1967	8	12
1	2091	8.5	12
1	2215	9	12
1	2339	9.5	12
1	2461	10	12
1	2485	10.5	3
2	3	0	0
2	108	0.5	0
2	232	1	0
2	356	1.5	0
2	480	2	0
2	604	2.5	0
2	728	3	0
2	852	3.5	0
2	976	4	0
2	1100	4.5	0
2	1224	5	0
2	1348	5.5	0
2	1472	6	0
2	1596	6.5	0
2	1720	7	0
2	1844	7.5	0
2	1968	8	0
2	2092	8.5	0
2	2216	9	0
2	2340	9.5	0
2	2462	10	0
2	2486	10.5	0
3	3	0	0
3	108	0.5	18
3	232	1	24
3	356	1.5	24
3	480	2	24
3	604	2.5	24
3	728	3	24
3	852	3.5	24
3	976	4	24
3	1100	4.5	24
3	1224	5	24
3	1348	5.5	24
3	1472	6	24
3	1596	6.5	24
3	1720	7	24
3	1844	7.5	24
3	1968	8	24
3	2092	8.5	24
3	2216	9	24
3	2340	9.5	24
3	2462	10	24
3	2486	10.5	6
4	4	0	0
4	109	0.5	0
4	233	1	0
4	357	1.5	0
4	481	2	0
4	605	2.5	0
4	729	3	0
4	853	3.5	0
4	977	4	0
4	1101	4.5	0
4	1225	5	0
4	1349	5.5	0
4	1473	6	0
4	1597	6.5	0
4	1721	7	0
4	1845	7.5	0
4	1969	8	0
4	2093	8.5	0
4	2217	9	0
4	2341	9.5	0
4	2463	10	0
4	2487	10.5	0
5	4	0	0
5	109	0.5	18
5	233	1	24
5	357	1.5	24
5	481	2	24
5	605	2.5	24
5	729	3	24
5	853	3.5	24
5	977	4	24
5	1101	4.5	24
5	1225	5	24
5	1349	5.5	24
5	1473	6	24
5	1597	6.5	24
5	1721	7	24
5	1845	7.5	24
5	1969	8	24
5	2093	8.5	24
5	2217	9	24
5	2341	9.5	24
5	2463	10	24
5	2487	10.5	6
6	6	0	0
6	110	0.5	0
6	234	1	0
6	358	1.5	0
6	482	2	0
6	606	2.5	0
6	730	3	0
6	854	3.5	0
6	978	4	0
6	1102	4.5	0
6	1226	5	0
6	1350	5.5	0
6	1474	6	0
6	1598	6.5	0
6	1722	7	0
6	1846	7.5	0
6	1970	8	0
6	2094	8.5	0
6	2218	9	0
6	2342	9.5	0
6	2464	10	0
6	2488	10.5	0
7	6	0	0
7	110	0.5	9
7	234	1	12
7	358	1.5	12
7	482	2	12
7	606	2.5	12
7	730	3	12
7	854	3.5	12
7	978	4	12
7	1102	4.5	12
7	1226	5	12
7	1350	5.5	12
7	1474	6	12
7	1598	6.5	12
7	1722	7	12
7	1846	7.5	12
7	1970	8	12
7	2094	8.5	12
7	2218	9	12
7	2342	9.5	12
7	2464	10	12
7	2488	10.5	3
8	30	0.18	0.18
8	50	0.263333333333	0.18
8	70	0.346666666667	0.18
8	90	0.43	0.18
8	114	0.513333333333	0.18
8	134	0.596666666667	0.18
8	154	0.68	0.18
8	174	0.763333333333	0.18
8	194	0.846666666667	0.18
8	214	0.93	0.18
8	238	1.013333333333	0.18
8	258	1.096666666667	0.18
8	278	1.18	0.18
8	298	1.26333333333	0.18
8	318	1.34666666667	0.18
8	338	1.43	0.18
8	362	1.51333333333	0.18
8	382	1.59666666667	0.18
8	402	1.68	0.18
8	422	1.76333333333	0.18
8	442	1.84666666667	0.18
8	462	1.93	0.18
8	486	2.01333333333	0.18
8	506	2.09666666667	0.18
8	526	2.18	0.18
8	546	2.26333333333	0.18
8	566	2.34666666667	0.18
8	586	2.43	0.18
8	610	2.51333333333	0.18
8	630	2.59666666667	0.18
8	650	2.68	0.18
8	670	2.76333333333	0.18
8	690	2.84666666667	0.18
8	710	2.93	0.18
8	734	3.01333333333	0.18
8	754	3.09666666667	0.18
8	774	3.18	0.18
8	794	3.26333333333	0.18
8	814	3.34666666667	0.18
8	834	3.43	0.18
8	858	3.51333333333	0.18
8	878	3.59666666667	0.18
8	898	3.68	0.18
8	918	3.76333333333	0.18
8	938	3.84666666667	0.18
8	958	3.93	0.18
8	982	4.01333333333	0.18
8	1002	4.09666666667	0.18
8	1022	4.18	0.18
8	1042	4.26333333333	0.18
8	1062	4.34666666667	0.18
8	1082	4.43	0.18
8	1106	4.51333333333	0.18
8	1126	4.59666666667	0.18
8	1146	4.68	0.18
8	1166	4.76333333333	0.18
8	1186	4.84666666667	0.18
8	1206	4.93	0.18
8	1230	5.01333333333	0.18
8	1250	5.09666666667	0.18
8	1270	5.18	0.18
8	1290	5.26333333333	0.18
8	1310	5.34666666667	0.18
8	1330	5.43	0.18
8	1354	5.51333333333	0.18
8	1374	5.59666666667	0.18
8	1394	5.68	0.18
8	1414	5.76333333333	0.18
8	1434	5.84666666667	0.18
8	1454	5.93	0.18
8	1478	6.01333333333	0.18
8	1498	6.09666666667	0.18
8	1518	6.18	0.18
8	1538	6.26333333333	0.18
8	1558	6.34666666667	0.18
8	1578	6.43	0.18
8	1602	6.51333333333	0.18
8	1622	6.59666666667	0.18
8	1642	6.68	0.18
8	1662	6.76333333333	0.18
8	1682	6.84666666667	0.18
8	1702	6.93	0.18
8	1726	7.01333333333	0.18
8	1746	7.09666666667	0.18
8	1766	7.18	0.18
8	1786	7.26333333333	0.18
8	1806	7.34666666667	0.18
8	1826	7.43	0.18
8	1850	7.51333333333	0.18
8	1870	7.59666666667	0.18
8	1890	7.68	0.18
8	1910	7.76333333333	0.18
8	1930	7.84666666667	0.18
8	1950	7.93	0.18
8	1974	8.01333333333	0.18
8	1994	8.09666666667	0.18
8	2014	8.18	0.18
8	2034	8.26333333333	0.18
8	2054	8.34666666667	0.18
8	2074	8.43	0.18
8	2098	8.51333333333	0.18
8	2118	8.59666666667	0.18
8	2138	8.68	0.18
8	2158	8.76333333333	0.18
8	2178	8.84666666667	0.18
8	2198	8.93	0.18
8	2222	9.01333333333	0.18
8	2242	9.09666666667	0.18
8	2262	9.18	0.18
8	2282	9.26333333333	0.18
8	2302	9.34666666667	0.18
8	2322	9.43	0.18
8	2346	9.51333333333	0.18
8	2366	9.59666666667	0.18
8	2386	9.68	0.18
8	2406	9.76333333333	0.18
8	2426	9.84666666667	0.18
8	2446	9.93	0.18
8	2468	10.01333333333	0.18
8	2480	10.09666666667	0.18
9	32	0.18	0.18
9	52	0.263333333333	0.18
9	72	0.346666666667	0.18
9	92	0.43	0.18
9	116	0.513333333333	0.18
9	136	0.596666666667	0.18
9	156	0.68	0.18
9	176	0.763333333333	0.18
9	196	0.846666666667	0.18
9	216	0.93	0.18
9	240	1.013333333333	0.18
9	260	1.096666666667	0.18
9	280	1.18	0.18
9	300	1.26333333333	0.18
9	320	1.34666666667	0.18
9	340	1.43	0.18
9	364	1.51333333333	0.18
9	384	1.59666666667	0.18
9	404	1.68	0.18
9	424	1.76333333333	0.18
9	444	1.84666666667	0.18
9	464	1.93	0.18
9	488	2.01333333333	0.18
9	508	2.09666666667	0.18
9	528	2.18	0.18
9	548	2.26333333333	0.18
9	568	2.34666666667	0.18
9	588	2.43	0.18
9	612	2.51333333333	0.18
9	632	2.59666666667	0.18
9	652	2.68	0.18
9	672	2.76333333333	0.18
9	692	2.84666666667	0.18
9	712	2.93	0.18
9	736	3.01333333333	0.18
9	756	3.09666666667	0.18
9	776	3.18	0.18
9	796	3.26333333333	0.18
9	816	3.34666666667	0.18
9	836	3.43	0.18
9	860	3.51333333333	0.18
9	880	3.59666666667	0.18
9	900	3.68	0.18
9	920	3.76333333333	0.18
9	940	3.84666666667	0.18
9	960	3.93	0.18
9	984	4.01333333333	0.18
9	1004	4.09666666667	0.18
9	1024	4.18	0.18
9	1044	4.26333333333	0.18
9	1064	4.34666666667	0.18
9	1084	4.43	0.18
9	1108	4.51333333333	0.18
9	1128	4.59666666667	0.18
9	1148	4.68	0.18
9	1168	4.76333333333	0.18
9	1188	4.84666666667	0.18
9	1208	4.93	0.18
9	1232	5.01333333333	0.18
9	1252	5.09666666667	0.18
9	1272	5.18	0.18
9	1292	5.26333333333	0.18
9	1312	5.34666666667	0.18
9	1332	5.43	0.18
9	1356	5.51333333333	0.18
9	1376	5.59666666667	0.18
9	1396	5.68	0.18
9	1416	5.76333333333	0.18
9	1436	5.84666666667	0.18
9	1456	5.93	0.18
9	1480	6.01333333333	0.18
9	1500	6.09666666667	0.18
9	1520	6.18	0.18
9	1540	6.26333333333	0.18
9	1560	6.34666666667	0.18
9	1580	6.43	0.18
9	1604	6.51333333333	0.18
9	1624	6.59666666667	0.18
9	1644	6.68	0.18
9	1664	6.76333333333	0.18
9	1684	6.84666666667	0.18
9	1704	6.93	0.18
9	1728	7.01333333333	0.18
9	1748	7.09666666667	0.18
9	1768	7.18	0.18
9	1788	7.26333333333	0.18
9	1808	7.34666666667	0.18
9	1828	7.43	0.18
9	1852	7.51333333333	0.18
9	1872	7.59666666667	0.18
9	1892	7.68	0.18
9	1912	7.76333333333	0.18
9	1932	7.84666666667	0.18
9	1952	7.93	0.18
9	1976	8.01333333333	0.18
9	1996	8.09666666667	0.18
9	2016	8.18	0.18
9	2036	8.26333333333	0.18
9	2056	8.34666666667	0.18
9	2076	8.43	0.18
9	2100	8.51333333333	0.18
9	2120	8.59666666667	0.18
9	2140	8.68	0.18
9	2160	8.76333333333	0.18
9	2180	8.84666666667	0.18
9	2200	8.93	0.18
9	2224	9.01333333333	0.18
9	2244	9.09666666667	0.18
9	2264	9.18	0.18
9	2284	9.26333333333	0.18
9	2304	9.34666666667	0.18
9	2324	9.43	0.18
9	2348	9.51333333333	0.18
9	2368	9.59666666667	0.18
9	2388	9.68	0.18
9	2408	9.76333333333	0.18
9	2428	9.84666666667	0.18
9	2448	9.93	0.18
9	2470	10.01333333333	0.18
9	2482	10.09666666667	0.18

