version 2
run simpleNet-0-20181107-05:17:25-31227
attr configname simpleNet
attr datetime 20181107-05:17:25
attr experiment simpleNet
attr inifile omnetpp.ini
attr iterationvars ""
attr iterationvarsf ""
attr measurement ""
attr network simpleNet
attr processid 31227
attr repetition 0
attr replication #0
attr resultdir results
attr runnumber 0
attr seedset 0

vector 0 simpleNet.node[0] numInQueue:vector ETV
attr interpolationmode none
attr source numInQueue
attr title "total num in queue, vector"
vector 1 simpleNet.node[0] numProcessed:vector ETV
attr interpolationmode none
attr source numProcessed
attr title "num processed in statRate time, vector"
vector 2 simpleNet.node[1] numInQueue:vector ETV
attr interpolationmode none
attr source numInQueue
attr title "total num in queue, vector"
vector 3 simpleNet.node[1] numProcessed:vector ETV
attr interpolationmode none
attr source numProcessed
attr title "num processed in statRate time, vector"
vector 4 simpleNet.node[2] numInQueue:vector ETV
attr interpolationmode none
attr source numInQueue
attr title "total num in queue, vector"
vector 5 simpleNet.node[2] numProcessed:vector ETV
attr interpolationmode none
attr source numProcessed
attr title "num processed in statRate time, vector"
vector 6 simpleNet.node[3] numInQueue:vector ETV
attr interpolationmode none
attr source numInQueue
attr title "total num in queue, vector"
vector 7 simpleNet.node[3] numProcessed:vector ETV
attr interpolationmode none
attr source numProcessed
attr title "num processed in statRate time, vector"
vector 8 simpleNet.node[0] completionTime:vector ETV
attr interpolationmode none
attr source completionTime
attr title "completionTime, vector"
vector 9 simpleNet.node[3] completionTime:vector ETV
attr interpolationmode none
attr source completionTime
attr title "completionTime, vector"
0	2	0	0
0	287	0.5	0
0	633	1	0
0	995	1.5	0
0	1341	2	0
0	1703	2.5	0
0	2049	3	0
0	2411	3.5	0
0	2757	4	0
0	3119	4.5	0
0	3465	5	0
0	3827	5.5	0
0	4173	6	0
0	4535	6.5	0
0	4881	7	0
0	5243	7.5	0
0	5589	8	0
0	5951	8.5	0
0	6297	9	0
0	6659	9.5	0
0	7003	10	0
0	7085	10.5	0
1	2	0	0
1	287	0.5	25
1	633	1	34
1	995	1.5	36
1	1341	2	34
1	1703	2.5	36
1	2049	3	34
1	2411	3.5	36
1	2757	4	34
1	3119	4.5	36
1	3465	5	34
1	3827	5.5	36
1	4173	6	34
1	4535	6.5	36
1	4881	7	34
1	5243	7.5	36
1	5589	8	34
1	5951	8.5	36
1	6297	9	34
1	6659	9.5	36
1	7003	10	34
1	7085	10.5	11
2	3	0	0
2	288	0.5	0
2	634	1	0
2	996	1.5	0
2	1342	2	0
2	1704	2.5	0
2	2050	3	0
2	2412	3.5	0
2	2758	4	0
2	3120	4.5	0
2	3466	5	0
2	3828	5.5	0
2	4174	6	0
2	4536	6.5	0
2	4882	7	0
2	5244	7.5	0
2	5590	8	0
2	5952	8.5	0
2	6298	9	0
2	6660	9.5	0
2	7004	10	0
2	7086	10.5	0
3	3	0	0
3	288	0.5	50
3	634	1	68
3	996	1.5	72
3	1342	2	68
3	1704	2.5	72
3	2050	3	68
3	2412	3.5	72
3	2758	4	68
3	3120	4.5	72
3	3466	5	68
3	3828	5.5	72
3	4174	6	68
3	4536	6.5	72
3	4882	7	68
3	5244	7.5	72
3	5590	8	68
3	5952	8.5	72
3	6298	9	68
3	6660	9.5	72
3	7004	10	68
3	7086	10.5	22
4	4	0	0
4	289	0.5	0
4	635	1	0
4	997	1.5	0
4	1343	2	0
4	1705	2.5	0
4	2051	3	0
4	2413	3.5	0
4	2759	4	0
4	3121	4.5	0
4	3467	5	0
4	3829	5.5	0
4	4175	6	0
4	4537	6.5	0
4	4883	7	0
4	5245	7.5	0
4	5591	8	0
4	5953	8.5	0
4	6299	9	0
4	6661	9.5	0
4	7005	10	0
4	7087	10.5	0
5	4	0	0
5	289	0.5	50
5	635	1	68
5	997	1.5	72
5	1343	2	68
5	1705	2.5	72
5	2051	3	68
5	2413	3.5	72
5	2759	4	68
5	3121	4.5	72
5	3467	5	68
5	3829	5.5	72
5	4175	6	68
5	4537	6.5	72
5	4883	7	68
5	5245	7.5	72
5	5591	8	68
5	5953	8.5	72
5	6299	9	68
5	6661	9.5	72
5	7005	10	68
5	7087	10.5	22
6	6	0	0
6	290	0.5	0
6	636	1	0
6	998	1.5	0
6	1344	2	0
6	1706	2.5	0
6	2052	3	0
6	2414	3.5	0
6	2760	4	0
6	3122	4.5	0
6	3468	5	0
6	3830	5.5	0
6	4176	6	0
6	4538	6.5	0
6	4884	7	0
6	5246	7.5	0
6	5592	8	0
6	5954	8.5	0
6	6300	9	0
6	6662	9.5	0
6	7006	10	0
6	7088	10.5	0
7	6	0	0
7	290	0.5	25
7	636	1	34
7	998	1.5	36
7	1344	2	34
7	1706	2.5	36
7	2052	3	34
7	2414	3.5	36
7	2760	4	34
7	3122	4.5	36
7	3468	5	34
7	3830	5.5	36
7	4176	6	34
7	4538	6.5	36
7	4884	7	34
7	5246	7.5	36
7	5592	8	34
7	5954	8.5	36
7	6300	9	34
7	6662	9.5	36
7	7006	10	34
7	7088	10.5	11
8	64	0.18	0.18
8	82	0.208571428571	0.18
8	102	0.237142857143	0.18
8	122	0.265714285714	0.18
8	142	0.294285714286	0.18
8	162	0.322857142857	0.18
8	182	0.351428571429	0.18
8	202	0.38	0.18
8	222	0.408571428571	0.18
8	242	0.437142857143	0.18
8	262	0.465714285714	0.18
8	282	0.494285714286	0.18
8	306	0.522857142857	0.18
8	326	0.551428571429	0.18
8	346	0.58	0.18
8	366	0.608571428571	0.18
8	386	0.637142857143	0.18
8	406	0.665714285714	0.18
8	426	0.694285714286	0.18
8	446	0.722857142857	0.18
8	466	0.751428571429	0.18
8	486	0.78	0.18
8	506	0.808571428571	0.18
8	526	0.837142857143	0.18
8	546	0.865714285714	0.18
8	566	0.894285714286	0.18
8	586	0.922857142857	0.18
8	606	0.951428571429	0.18
8	626	0.98	0.18
8	650	1.008571428571	0.18
8	670	1.037142857143	0.18
8	690	1.065714285714	0.18
8	710	1.094285714286	0.18
8	730	1.122857142857	0.18
8	750	1.151428571429	0.18
8	770	1.18	0.18
8	790	1.20857142857	0.18
8	810	1.23714285714	0.18
8	830	1.26571428571	0.18
8	850	1.29428571429	0.18
8	870	1.32285714286	0.18
8	890	1.35142857143	0.18
8	910	1.38	0.18
8	930	1.40857142857	0.18
8	950	1.43714285714	0.18
8	970	1.46571428571	0.18
8	990	1.49428571429	0.18
8	1014	1.52285714286	0.18
8	1034	1.55142857143	0.18
8	1054	1.58	0.18
8	1074	1.60857142857	0.18
8	1094	1.63714285714	0.18
8	1114	1.66571428571	0.18
8	1134	1.69428571429	0.18
8	1154	1.72285714286	0.18
8	1174	1.75142857143	0.18
8	1194	1.78	0.18
8	1214	1.80857142857	0.18
8	1234	1.83714285714	0.18
8	1254	1.86571428571	0.18
8	1274	1.89428571429	0.18
8	1294	1.92285714286	0.18
8	1314	1.95142857143	0.18
8	1334	1.98	0.18
8	1358	2.00857142857	0.18
8	1378	2.03714285714	0.18
8	1398	2.06571428571	0.18
8	1418	2.09428571429	0.18
8	1438	2.12285714286	0.18
8	1458	2.15142857143	0.18
8	1478	2.18	0.18
8	1498	2.20857142857	0.18
8	1518	2.23714285714	0.18
8	1538	2.26571428571	0.18
8	1558	2.29428571429	0.18
8	1578	2.32285714286	0.18
8	1598	2.35142857143	0.18
8	1618	2.38	0.18
8	1638	2.40857142857	0.18
8	1658	2.43714285714	0.18
8	1678	2.46571428571	0.18
8	1698	2.49428571429	0.18
8	1722	2.52285714286	0.18
8	1742	2.55142857143	0.18
8	1762	2.58	0.18
8	1782	2.60857142857	0.18
8	1802	2.63714285714	0.18
8	1822	2.66571428571	0.18
8	1842	2.69428571429	0.18
8	1862	2.72285714286	0.18
8	1882	2.75142857143	0.18
8	1902	2.78	0.18
8	1922	2.80857142857	0.18
8	1942	2.83714285714	0.18
8	1962	2.86571428571	0.18
8	1982	2.89428571429	0.18
8	2002	2.92285714286	0.18
8	2022	2.95142857143	0.18
8	2042	2.98	0.18
8	2066	3.00857142857	0.18
8	2086	3.03714285714	0.18
8	2106	3.06571428571	0.18
8	2126	3.09428571429	0.18
8	2146	3.12285714286	0.18
8	2166	3.15142857143	0.18
8	2186	3.18	0.18
8	2206	3.20857142857	0.18
8	2226	3.23714285714	0.18
8	2246	3.26571428571	0.18
8	2266	3.29428571429	0.18
8	2286	3.32285714286	0.18
8	2306	3.35142857143	0.18
8	2326	3.38	0.18
8	2346	3.40857142857	0.18
8	2366	3.43714285714	0.18
8	2386	3.46571428571	0.18
8	2406	3.49428571429	0.18
8	2430	3.52285714286	0.18
8	2450	3.55142857143	0.18
8	2470	3.58	0.18
8	2490	3.60857142857	0.18
8	2510	3.63714285714	0.18
8	2530	3.66571428571	0.18
8	2550	3.69428571429	0.18
8	2570	3.72285714286	0.18
8	2590	3.75142857143	0.18
8	2610	3.78	0.18
8	2630	3.80857142857	0.18
8	2650	3.83714285714	0.18
8	2670	3.86571428571	0.18
8	2690	3.89428571429	0.18
8	2710	3.92285714286	0.18
8	2730	3.95142857143	0.18
8	2750	3.98	0.18
8	2774	4.00857142857	0.18
8	2794	4.03714285714	0.18
8	2814	4.06571428571	0.18
8	2834	4.09428571429	0.18
8	2854	4.12285714286	0.18
8	2874	4.15142857143	0.18
8	2894	4.18	0.18
8	2914	4.20857142857	0.18
8	2934	4.23714285714	0.18
8	2954	4.26571428571	0.18
8	2974	4.29428571429	0.18
8	2994	4.32285714286	0.18
8	3014	4.35142857143	0.18
8	3034	4.38	0.18
8	3054	4.40857142857	0.18
8	3074	4.43714285714	0.18
8	3094	4.46571428571	0.18
8	3114	4.49428571429	0.18
8	3138	4.52285714286	0.18
8	3158	4.55142857143	0.18
8	3178	4.58	0.18
8	3198	4.60857142857	0.18
8	3218	4.63714285714	0.18
8	3238	4.66571428571	0.18
8	3258	4.69428571429	0.18
8	3278	4.72285714286	0.18
8	3298	4.75142857143	0.18
8	3318	4.78	0.18
8	3338	4.80857142857	0.18
8	3358	4.83714285714	0.18
8	3378	4.86571428571	0.18
8	3398	4.89428571429	0.18
8	3418	4.92285714286	0.18
8	3438	4.95142857143	0.18
8	3458	4.98	0.18
8	3482	5.00857142857	0.18
8	3502	5.03714285714	0.18
8	3522	5.06571428571	0.18
8	3542	5.09428571429	0.18
8	3562	5.12285714286	0.18
8	3582	5.15142857143	0.18
8	3602	5.18	0.18
8	3622	5.20857142857	0.18
8	3642	5.23714285714	0.18
8	3662	5.26571428571	0.18
8	3682	5.29428571429	0.18
8	3702	5.32285714286	0.18
8	3722	5.35142857143	0.18
8	3742	5.38	0.18
8	3762	5.40857142857	0.18
8	3782	5.43714285714	0.18
8	3802	5.46571428571	0.18
8	3822	5.49428571429	0.18
8	3846	5.52285714286	0.18
8	3866	5.55142857143	0.18
8	3886	5.58	0.18
8	3906	5.60857142857	0.18
8	3926	5.63714285714	0.18
8	3946	5.66571428571	0.18
8	3966	5.69428571429	0.18
8	3986	5.72285714286	0.18
8	4006	5.75142857143	0.18
8	4026	5.78	0.18
8	4046	5.80857142857	0.18
8	4066	5.83714285714	0.18
8	4086	5.86571428571	0.18
8	4106	5.89428571429	0.18
8	4126	5.92285714286	0.18
8	4146	5.95142857143	0.18
8	4166	5.98	0.18
8	4190	6.00857142857	0.18
8	4210	6.03714285714	0.18
8	4230	6.06571428571	0.18
8	4250	6.09428571429	0.18
8	4270	6.12285714286	0.18
8	4290	6.15142857143	0.18
8	4310	6.18	0.18
8	4330	6.20857142857	0.18
8	4350	6.23714285714	0.18
8	4370	6.26571428571	0.18
8	4390	6.29428571429	0.18
8	4410	6.32285714286	0.18
8	4430	6.35142857143	0.18
8	4450	6.38	0.18
8	4470	6.40857142857	0.18
8	4490	6.43714285714	0.18
8	4510	6.46571428571	0.18
8	4530	6.49428571429	0.18
8	4554	6.52285714286	0.18
8	4574	6.55142857143	0.18
8	4594	6.58	0.18
8	4614	6.60857142857	0.18
8	4634	6.63714285714	0.18
8	4654	6.66571428571	0.18
8	4674	6.69428571429	0.18
8	4694	6.72285714286	0.18
8	4714	6.75142857143	0.18
8	4734	6.78	0.18
8	4754	6.80857142857	0.18
8	4774	6.83714285714	0.18
8	4794	6.86571428571	0.18
8	4814	6.89428571429	0.18
8	4834	6.92285714286	0.18
8	4854	6.95142857143	0.18
8	4874	6.98	0.18
8	4898	7.00857142857	0.18
8	4918	7.03714285714	0.18
8	4938	7.06571428571	0.18
8	4958	7.09428571429	0.18
8	4978	7.12285714286	0.18
8	4998	7.15142857143	0.18
8	5018	7.18	0.18
8	5038	7.20857142857	0.18
8	5058	7.23714285714	0.18
8	5078	7.26571428571	0.18
8	5098	7.29428571429	0.18
8	5118	7.32285714286	0.18
8	5138	7.35142857143	0.18
8	5158	7.38	0.18
8	5178	7.40857142857	0.18
8	5198	7.43714285714	0.18
8	5218	7.46571428571	0.18
8	5238	7.49428571429	0.18
8	5262	7.52285714286	0.18
8	5282	7.55142857143	0.18
8	5302	7.58	0.18
8	5322	7.60857142857	0.18
8	5342	7.63714285714	0.18
8	5362	7.66571428571	0.18
8	5382	7.69428571429	0.18
8	5402	7.72285714286	0.18
8	5422	7.75142857143	0.18
8	5442	7.78	0.18
8	5462	7.80857142857	0.18
8	5482	7.83714285714	0.18
8	5502	7.86571428571	0.18
8	5522	7.89428571429	0.18
8	5542	7.92285714286	0.18
8	5562	7.95142857143	0.18
8	5582	7.98	0.18
8	5606	8.00857142857	0.18
8	5626	8.03714285714	0.18
8	5646	8.06571428571	0.18
8	5666	8.09428571429	0.18
8	5686	8.12285714286	0.18
8	5706	8.15142857143	0.18
8	5726	8.18	0.18
8	5746	8.20857142857	0.18
8	5766	8.23714285714	0.18
8	5786	8.26571428571	0.18
8	5806	8.29428571429	0.18
8	5826	8.32285714286	0.18
8	5846	8.35142857143	0.18
8	5866	8.38	0.18
8	5886	8.40857142857	0.18
8	5906	8.43714285714	0.18
8	5926	8.46571428571	0.18
8	5946	8.49428571429	0.18
8	5970	8.52285714286	0.18
8	5990	8.55142857143	0.18
8	6010	8.58	0.18
8	6030	8.60857142857	0.18
8	6050	8.63714285714	0.18
8	6070	8.66571428571	0.18
8	6090	8.69428571429	0.18
8	6110	8.72285714286	0.18
8	6130	8.75142857143	0.18
8	6150	8.78	0.18
8	6170	8.80857142857	0.18
8	6190	8.83714285714	0.18
8	6210	8.86571428571	0.18
8	6230	8.89428571429	0.18
8	6250	8.92285714286	0.18
8	6270	8.95142857143	0.18
8	6290	8.98	0.18
8	6314	9.00857142857	0.18
8	6334	9.03714285714	0.18
8	6354	9.06571428571	0.18
8	6374	9.09428571429	0.18
8	6394	9.12285714286	0.18
8	6414	9.15142857143	0.18
8	6434	9.18	0.18
8	6454	9.20857142857	0.18
8	6474	9.23714285714	0.18
8	6494	9.26571428571	0.18
8	6514	9.29428571429	0.18
8	6534	9.32285714286	0.18
8	6554	9.35142857143	0.18
8	6574	9.38	0.18
8	6594	9.40857142857	0.18
8	6614	9.43714285714	0.18
8	6634	9.46571428571	0.18
8	6654	9.49428571429	0.18
8	6678	9.52285714286	0.18
8	6698	9.55142857143	0.18
8	6718	9.58	0.18
8	6738	9.60857142857	0.18
8	6758	9.63714285714	0.18
8	6778	9.66571428571	0.18
8	6798	9.69428571429	0.18
8	6818	9.72285714286	0.18
8	6838	9.75142857143	0.18
8	6858	9.78	0.18
8	6878	9.80857142857	0.18
8	6898	9.83714285714	0.18
8	6918	9.86571428571	0.18
8	6938	9.89428571429	0.18
8	6958	9.92285714286	0.18
8	6978	9.95142857143	0.18
8	6998	9.98	0.18
8	7020	10.00857142857	0.18
8	7036	10.03714285714	0.18
8	7050	10.06571428571	0.18
8	7062	10.09428571429	0.18
8	7072	10.12285714286	0.18
8	7078	10.15142857143	0.18
9	66	0.18	0.18
9	84	0.208571428571	0.18
9	104	0.237142857143	0.18
9	124	0.265714285714	0.18
9	144	0.294285714286	0.18
9	164	0.322857142857	0.18
9	184	0.351428571429	0.18
9	204	0.38	0.18
9	224	0.408571428571	0.18
9	244	0.437142857143	0.18
9	264	0.465714285714	0.18
9	284	0.494285714286	0.18
9	308	0.522857142857	0.18
9	328	0.551428571429	0.18
9	348	0.58	0.18
9	368	0.608571428571	0.18
9	388	0.637142857143	0.18
9	408	0.665714285714	0.18
9	428	0.694285714286	0.18
9	448	0.722857142857	0.18
9	468	0.751428571429	0.18
9	488	0.78	0.18
9	508	0.808571428571	0.18
9	528	0.837142857143	0.18
9	548	0.865714285714	0.18
9	568	0.894285714286	0.18
9	588	0.922857142857	0.18
9	608	0.951428571429	0.18
9	628	0.98	0.18
9	652	1.008571428571	0.18
9	672	1.037142857143	0.18
9	692	1.065714285714	0.18
9	712	1.094285714286	0.18
9	732	1.122857142857	0.18
9	752	1.151428571429	0.18
9	772	1.18	0.18
9	792	1.20857142857	0.18
9	812	1.23714285714	0.18
9	832	1.26571428571	0.18
9	852	1.29428571429	0.18
9	872	1.32285714286	0.18
9	892	1.35142857143	0.18
9	912	1.38	0.18
9	932	1.40857142857	0.18
9	952	1.43714285714	0.18
9	972	1.46571428571	0.18
9	992	1.49428571429	0.18
9	1016	1.52285714286	0.18
9	1036	1.55142857143	0.18
9	1056	1.58	0.18
9	1076	1.60857142857	0.18
9	1096	1.63714285714	0.18
9	1116	1.66571428571	0.18
9	1136	1.69428571429	0.18
9	1156	1.72285714286	0.18
9	1176	1.75142857143	0.18
9	1196	1.78	0.18
9	1216	1.80857142857	0.18
9	1236	1.83714285714	0.18
9	1256	1.86571428571	0.18
9	1276	1.89428571429	0.18
9	1296	1.92285714286	0.18
9	1316	1.95142857143	0.18
9	1336	1.98	0.18
9	1360	2.00857142857	0.18
9	1380	2.03714285714	0.18
9	1400	2.06571428571	0.18
9	1420	2.09428571429	0.18
9	1440	2.12285714286	0.18
9	1460	2.15142857143	0.18
9	1480	2.18	0.18
9	1500	2.20857142857	0.18
9	1520	2.23714285714	0.18
9	1540	2.26571428571	0.18
9	1560	2.29428571429	0.18
9	1580	2.32285714286	0.18
9	1600	2.35142857143	0.18
9	1620	2.38	0.18
9	1640	2.40857142857	0.18
9	1660	2.43714285714	0.18
9	1680	2.46571428571	0.18
9	1700	2.49428571429	0.18
9	1724	2.52285714286	0.18
9	1744	2.55142857143	0.18
9	1764	2.58	0.18
9	1784	2.60857142857	0.18
9	1804	2.63714285714	0.18
9	1824	2.66571428571	0.18
9	1844	2.69428571429	0.18
9	1864	2.72285714286	0.18
9	1884	2.75142857143	0.18
9	1904	2.78	0.18
9	1924	2.80857142857	0.18
9	1944	2.83714285714	0.18
9	1964	2.86571428571	0.18
9	1984	2.89428571429	0.18
9	2004	2.92285714286	0.18
9	2024	2.95142857143	0.18
9	2044	2.98	0.18
9	2068	3.00857142857	0.18
9	2088	3.03714285714	0.18
9	2108	3.06571428571	0.18
9	2128	3.09428571429	0.18
9	2148	3.12285714286	0.18
9	2168	3.15142857143	0.18
9	2188	3.18	0.18
9	2208	3.20857142857	0.18
9	2228	3.23714285714	0.18
9	2248	3.26571428571	0.18
9	2268	3.29428571429	0.18
9	2288	3.32285714286	0.18
9	2308	3.35142857143	0.18
9	2328	3.38	0.18
9	2348	3.40857142857	0.18
9	2368	3.43714285714	0.18
9	2388	3.46571428571	0.18
9	2408	3.49428571429	0.18
9	2432	3.52285714286	0.18
9	2452	3.55142857143	0.18
9	2472	3.58	0.18
9	2492	3.60857142857	0.18
9	2512	3.63714285714	0.18
9	2532	3.66571428571	0.18
9	2552	3.69428571429	0.18
9	2572	3.72285714286	0.18
9	2592	3.75142857143	0.18
9	2612	3.78	0.18
9	2632	3.80857142857	0.18
9	2652	3.83714285714	0.18
9	2672	3.86571428571	0.18
9	2692	3.89428571429	0.18
9	2712	3.92285714286	0.18
9	2732	3.95142857143	0.18
9	2752	3.98	0.18
9	2776	4.00857142857	0.18
9	2796	4.03714285714	0.18
9	2816	4.06571428571	0.18
9	2836	4.09428571429	0.18
9	2856	4.12285714286	0.18
9	2876	4.15142857143	0.18
9	2896	4.18	0.18
9	2916	4.20857142857	0.18
9	2936	4.23714285714	0.18
9	2956	4.26571428571	0.18
9	2976	4.29428571429	0.18
9	2996	4.32285714286	0.18
9	3016	4.35142857143	0.18
9	3036	4.38	0.18
9	3056	4.40857142857	0.18
9	3076	4.43714285714	0.18
9	3096	4.46571428571	0.18
9	3116	4.49428571429	0.18
9	3140	4.52285714286	0.18
9	3160	4.55142857143	0.18
9	3180	4.58	0.18
9	3200	4.60857142857	0.18
9	3220	4.63714285714	0.18
9	3240	4.66571428571	0.18
9	3260	4.69428571429	0.18
9	3280	4.72285714286	0.18
9	3300	4.75142857143	0.18
9	3320	4.78	0.18
9	3340	4.80857142857	0.18
9	3360	4.83714285714	0.18
9	3380	4.86571428571	0.18
9	3400	4.89428571429	0.18
9	3420	4.92285714286	0.18
9	3440	4.95142857143	0.18
9	3460	4.98	0.18
9	3484	5.00857142857	0.18
9	3504	5.03714285714	0.18
9	3524	5.06571428571	0.18
9	3544	5.09428571429	0.18
9	3564	5.12285714286	0.18
9	3584	5.15142857143	0.18
9	3604	5.18	0.18
9	3624	5.20857142857	0.18
9	3644	5.23714285714	0.18
9	3664	5.26571428571	0.18
9	3684	5.29428571429	0.18
9	3704	5.32285714286	0.18
9	3724	5.35142857143	0.18
9	3744	5.38	0.18
9	3764	5.40857142857	0.18
9	3784	5.43714285714	0.18
9	3804	5.46571428571	0.18
9	3824	5.49428571429	0.18
9	3848	5.52285714286	0.18
9	3868	5.55142857143	0.18
9	3888	5.58	0.18
9	3908	5.60857142857	0.18
9	3928	5.63714285714	0.18
9	3948	5.66571428571	0.18
9	3968	5.69428571429	0.18
9	3988	5.72285714286	0.18
9	4008	5.75142857143	0.18
9	4028	5.78	0.18
9	4048	5.80857142857	0.18
9	4068	5.83714285714	0.18
9	4088	5.86571428571	0.18
9	4108	5.89428571429	0.18
9	4128	5.92285714286	0.18
9	4148	5.95142857143	0.18
9	4168	5.98	0.18
9	4192	6.00857142857	0.18
9	4212	6.03714285714	0.18
9	4232	6.06571428571	0.18
9	4252	6.09428571429	0.18
9	4272	6.12285714286	0.18
9	4292	6.15142857143	0.18
9	4312	6.18	0.18
9	4332	6.20857142857	0.18
9	4352	6.23714285714	0.18
9	4372	6.26571428571	0.18
9	4392	6.29428571429	0.18
9	4412	6.32285714286	0.18
9	4432	6.35142857143	0.18
9	4452	6.38	0.18
9	4472	6.40857142857	0.18
9	4492	6.43714285714	0.18
9	4512	6.46571428571	0.18
9	4532	6.49428571429	0.18
9	4556	6.52285714286	0.18
9	4576	6.55142857143	0.18
9	4596	6.58	0.18
9	4616	6.60857142857	0.18
9	4636	6.63714285714	0.18
9	4656	6.66571428571	0.18
9	4676	6.69428571429	0.18
9	4696	6.72285714286	0.18
9	4716	6.75142857143	0.18
9	4736	6.78	0.18
9	4756	6.80857142857	0.18
9	4776	6.83714285714	0.18
9	4796	6.86571428571	0.18
9	4816	6.89428571429	0.18
9	4836	6.92285714286	0.18
9	4856	6.95142857143	0.18
9	4876	6.98	0.18
9	4900	7.00857142857	0.18
9	4920	7.03714285714	0.18
9	4940	7.06571428571	0.18
9	4960	7.09428571429	0.18
9	4980	7.12285714286	0.18
9	5000	7.15142857143	0.18
9	5020	7.18	0.18
9	5040	7.20857142857	0.18
9	5060	7.23714285714	0.18
9	5080	7.26571428571	0.18
9	5100	7.29428571429	0.18
9	5120	7.32285714286	0.18
9	5140	7.35142857143	0.18
9	5160	7.38	0.18
9	5180	7.40857142857	0.18
9	5200	7.43714285714	0.18
9	5220	7.46571428571	0.18
9	5240	7.49428571429	0.18
9	5264	7.52285714286	0.18
9	5284	7.55142857143	0.18
9	5304	7.58	0.18
9	5324	7.60857142857	0.18
9	5344	7.63714285714	0.18
9	5364	7.66571428571	0.18
9	5384	7.69428571429	0.18
9	5404	7.72285714286	0.18
9	5424	7.75142857143	0.18
9	5444	7.78	0.18
9	5464	7.80857142857	0.18
9	5484	7.83714285714	0.18
9	5504	7.86571428571	0.18
9	5524	7.89428571429	0.18
9	5544	7.92285714286	0.18
9	5564	7.95142857143	0.18
9	5584	7.98	0.18
9	5608	8.00857142857	0.18
9	5628	8.03714285714	0.18
9	5648	8.06571428571	0.18
9	5668	8.09428571429	0.18
9	5688	8.12285714286	0.18
9	5708	8.15142857143	0.18
9	5728	8.18	0.18
9	5748	8.20857142857	0.18
9	5768	8.23714285714	0.18
9	5788	8.26571428571	0.18
9	5808	8.29428571429	0.18
9	5828	8.32285714286	0.18
9	5848	8.35142857143	0.18
9	5868	8.38	0.18
9	5888	8.40857142857	0.18
9	5908	8.43714285714	0.18
9	5928	8.46571428571	0.18
9	5948	8.49428571429	0.18
9	5972	8.52285714286	0.18
9	5992	8.55142857143	0.18
9	6012	8.58	0.18
9	6032	8.60857142857	0.18
9	6052	8.63714285714	0.18
9	6072	8.66571428571	0.18
9	6092	8.69428571429	0.18
9	6112	8.72285714286	0.18
9	6132	8.75142857143	0.18
9	6152	8.78	0.18
9	6172	8.80857142857	0.18
9	6192	8.83714285714	0.18
9	6212	8.86571428571	0.18
9	6232	8.89428571429	0.18
9	6252	8.92285714286	0.18
9	6272	8.95142857143	0.18
9	6292	8.98	0.18
9	6316	9.00857142857	0.18
9	6336	9.03714285714	0.18
9	6356	9.06571428571	0.18
9	6376	9.09428571429	0.18
9	6396	9.12285714286	0.18
9	6416	9.15142857143	0.18
9	6436	9.18	0.18
9	6456	9.20857142857	0.18
9	6476	9.23714285714	0.18
9	6496	9.26571428571	0.18
9	6516	9.29428571429	0.18
9	6536	9.32285714286	0.18
9	6556	9.35142857143	0.18
9	6576	9.38	0.18
9	6596	9.40857142857	0.18
9	6616	9.43714285714	0.18
9	6636	9.46571428571	0.18
9	6656	9.49428571429	0.18
9	6680	9.52285714286	0.18
9	6700	9.55142857143	0.18
9	6720	9.58	0.18
9	6740	9.60857142857	0.18
9	6760	9.63714285714	0.18
9	6780	9.66571428571	0.18
9	6800	9.69428571429	0.18
9	6820	9.72285714286	0.18
9	6840	9.75142857143	0.18
9	6860	9.78	0.18
9	6880	9.80857142857	0.18
9	6900	9.83714285714	0.18
9	6920	9.86571428571	0.18
9	6940	9.89428571429	0.18
9	6960	9.92285714286	0.18
9	6980	9.95142857143	0.18
9	7000	9.98	0.18
9	7022	10.00857142857	0.18
9	7038	10.03714285714	0.18
9	7052	10.06571428571	0.18
9	7064	10.09428571429	0.18
9	7074	10.12285714286	0.18
9	7080	10.15142857143	0.18

